
  ___ ___ ___ _ _ _  
 |   |   |_  | | | | 
 | | | | | . | | | | 
 |__ |  _|___|_____|  24.6.0
 |___|_|             

User:   kerem@DESKTOP-CMKTO4T
Date:   Sat Mar 29 12:13:33 2025
Arch:   x86_64
Pid:    640
CWD:    /home/kerem
Python: 3.12.9
gpaw:   /home/kerem/miniconda3/envs/gpaw-env/lib/python3.12/site-packages/gpaw
_gpaw:  /home/kerem/miniconda3/envs/gpaw-env/lib/python3.12/site-packages/
        _gpaw.cpython-312-x86_64-linux-gnu.so
ase:    /home/kerem/miniconda3/envs/gpaw-env/lib/python3.12/site-packages/ase (version 3.24.0)
numpy:  /home/kerem/miniconda3/envs/gpaw-env/lib/python3.12/site-packages/numpy (version 1.26.4)
scipy:  /home/kerem/miniconda3/envs/gpaw-env/lib/python3.12/site-packages/scipy (version 1.15.2)
libxc:  6.2.2
units:  Angstrom and eV
cores: 1
OpenMP: True
OMP_NUM_THREADS: 1

Input parameters:
  kpts: [2 2 1]
  mode: {ecut: 400.0,
         name: pw}
  xc: PBE

System changes: positions, numbers, cell, pbc, initial_charges, initial_magmoms 

Initialize ...

species:
  Ni:
    name: Nickel
    id: 0d9f38a9d6e76a2886f07bb4381f212b
    Z: 28.0
    valence: 16
    core: 12
    charge: 0.0
    file: /home/kerem/miniconda3/envs/gpaw-env/share/gpaw/Ni.PBE.gz
    compensation charges: {type: gauss,
                           rc: 0.36,
                           lmax: 2}
    cutoffs: {filter: 2.14,
              core: 1.98}
    projectors:
      #              energy  rcut
      - 4s(2.00)    -5.642   1.164
      - 3p(6.00)   -71.394   1.207
      - 4p(0.00)    -1.226   1.207
      - 3d(8.00)    -8.875   1.138
      -  s          21.570   1.164
      -  d          18.337   1.138
  
    # Using partial waves for Ni as LCAO basis

  H:
    name: Hydrogen
    id: d65de229564ff8ea4db303e23b6d1ecf
    Z: 1.0
    valence: 1
    core: 0
    charge: 0.0
    file: /home/kerem/miniconda3/envs/gpaw-env/share/gpaw/H.PBE.gz
    compensation charges: {type: gauss,
                           rc: 0.15,
                           lmax: 2}
    cutoffs: {filter: 0.85,
              core: 0.53}
    projectors:
      #              energy  rcut
      - 1s(1.00)    -6.494   0.476
      -  s          20.717   0.476
      -  p           0.000   0.476
  
    # Using partial waves for H as LCAO basis

Reference energy: -1116960.938401  # eV

Spin-paired calculation

Convergence criteria:
 Maximum [total energy] change in last 3 cyles: 0.0005 eV / valence electron
 Maximum integral of absolute [dens]ity change: 0.0001 electrons / valence electron
 Maximum integral of absolute [eigenst]ate change: 4e-08 eV^2 / valence electron
 Maximum number of scf [iter]ations: 333
 (Square brackets indicate name in SCF output, whereas a 'c' in
 the SCF output indicates the quantity has converged.)

Symmetries present (total): 2

  ( 1  0  0)  (-1  0  0)
  ( 0  1  0)  (-1  1  0)
  ( 0  0  1)  ( 0  0  1)
Note: your k-points are not as symmetric as your crystal!

4 k-points: 2 x 2 x 1 Monkhorst-Pack grid
2 k-points in the irreducible part of the Brillouin zone
       k-points in crystal coordinates                weights
   0:     0.25000000   -0.25000000    0.00000000          2/4
   1:     0.25000000    0.25000000    0.00000000          2/4

Wave functions: Plane wave expansion
  Cutoff energy: 400.000 eV
  Number of coefficients (min, max): 21105, 21124
  Pulay-stress correction: 0.000000 eV/Ang^3 (de/decut=0.000000)
  Using FFTW library
  ScaLapack parameters: grid=1x1, blocksize=None
  Wavefunction extrapolation:
    Improved wavefunction reuse through dual PAW basis 

Occupation numbers: Fermi-Dirac:
  width: 0.1000  # eV
 

Eigensolver
   Davidson(niter=2) 

Densities:
  Coarse grid: 35*35*112 grid
  Fine grid: 70*70*224 grid
  Total Charge: 0.000000 

Density mixing:
  Method: separate
  Backend: pulay
  Linear mixing parameter: 0.05
  old densities: 5
  Damping of long wavelength oscillations: 50 

Hamiltonian:
  XC and Coulomb potentials evaluated on a 70*70*224 grid
  Using the PBE Exchange-Correlation functional
  External potential:
    NoExternalPotential
 

XC parameters: PBE with 2 nearest neighbor stencil

Memory estimate:
  Process memory now: 1082.10 MiB
  Calculator: 368.46 MiB
    Density: 65.71 MiB
      Arrays: 27.22 MiB
      Localized functions: 28.02 MiB
      Mixer: 10.47 MiB
    Hamiltonian: 18.48 MiB
      Arrays: 17.79 MiB
      XC: 0.00 MiB
      Poisson: 0.00 MiB
      vbar: 0.68 MiB
    Wavefunctions: 284.27 MiB
      Arrays psit_nG: 170.83 MiB
      Eigensolver: 97.75 MiB
      Projections: 4.01 MiB
      Projectors: 5.80 MiB
      PW-descriptor: 5.88 MiB

Total number of cores used: 1

Number of atoms: 29
Number of atomic orbitals: 326
Number of bands in calculation: 265
Number of valence electrons: 434
Bands to converge: occupied

... initialized

Initializing position-dependent things.

Density initialized from atomic densities
Creating initial wave functions:
  265 bands from LCAO basis set

                                         
                                         
                                         
                                         
                                         
                  H                      
                  H                      
                Ni    Ni    Ni           
                                         
           Ni    NNi   NNi   Ni          
       Ni   NNi   NNi   Ni               
                                         
        Ni    Ni   NNi   Ni    Ni        
               Ni    Ni    Ni            
                                         
           Ni    Ni    Ni                
                                         
                                         
                                         
                                         

Positions:
   0 Ni     1.244508    0.718517   10.000000    ( 0.0000,  0.0000,  0.0000)
   1 Ni     3.733524    0.718517   10.000000    ( 0.0000,  0.0000,  0.0000)
   2 Ni     6.222540    0.718517   10.000000    ( 0.0000,  0.0000,  0.0000)
   3 Ni     2.489016    2.874068   10.000000    ( 0.0000,  0.0000,  0.0000)
   4 Ni     4.978032    2.874068   10.000000    ( 0.0000,  0.0000,  0.0000)
   5 Ni     7.467048    2.874068   10.000000    ( 0.0000,  0.0000,  0.0000)
   6 Ni     3.733524    5.029619   10.000000    ( 0.0000,  0.0000,  0.0000)
   7 Ni     6.222540    5.029619   10.000000    ( 0.0000,  0.0000,  0.0000)
   8 Ni     8.711556    5.029619   10.000000    ( 0.0000,  0.0000,  0.0000)
   9 Ni     0.000000    1.437034   12.032273    ( 0.0000,  0.0000,  0.0000)
  10 Ni     2.489016    1.437034   12.032273    ( 0.0000,  0.0000,  0.0000)
  11 Ni     4.978032    1.437034   12.032273    ( 0.0000,  0.0000,  0.0000)
  12 Ni     1.244508    3.592585   12.032273    ( 0.0000,  0.0000,  0.0000)
  13 Ni     3.733524    3.592585   12.032273    ( 0.0000,  0.0000,  0.0000)
  14 Ni     6.222540    3.592585   12.032273    ( 0.0000,  0.0000,  0.0000)
  15 Ni     2.489016    5.748136   12.032273    ( 0.0000,  0.0000,  0.0000)
  16 Ni     4.978032    5.748136   12.032273    ( 0.0000,  0.0000,  0.0000)
  17 Ni     7.467048    5.748136   12.032273    ( 0.0000,  0.0000,  0.0000)
  18 Ni     0.000000    0.000000   14.064546    ( 0.0000,  0.0000,  0.0000)
  19 Ni     2.489016    0.000000   14.064546    ( 0.0000,  0.0000,  0.0000)
  20 Ni     4.978032    0.000000   14.064546    ( 0.0000,  0.0000,  0.0000)
  21 Ni     1.244508    2.155551   14.064546    ( 0.0000,  0.0000,  0.0000)
  22 Ni     3.733524    2.155551   14.064546    ( 0.0000,  0.0000,  0.0000)
  23 Ni     6.222540    2.155551   14.064546    ( 0.0000,  0.0000,  0.0000)
  24 Ni     2.489016    4.311102   14.064546    ( 0.0000,  0.0000,  0.0000)
  25 Ni     4.978032    4.311102   14.064546    ( 0.0000,  0.0000,  0.0000)
  26 Ni     7.467048    4.311102   14.064546    ( 0.0000,  0.0000,  0.0000)
  27 H      3.733524    3.233326   15.564546    ( 0.0000,  0.0000,  0.0000)
  28 H      3.733524    3.233326   16.304546    ( 0.0000,  0.0000,  0.0000)

Unit cell:
           periodic     x           y           z      points  spacing
  1. axis:    yes    7.467048    0.000000    0.000000    35     0.1848
  2. axis:    yes    3.733524    6.466653    0.000000    35     0.1848
  3. axis:    no     0.000000    0.000000   24.064546   112     0.2149

  Lengths:   7.467048   7.467048  24.064546
  Angles:   90.000000  90.000000  60.000000

Effective grid spacing dv^(1/3) = 0.2038

     iter     time        total  log10-change:
                         energy   eigst   dens
iter:   1 12:14:30  -193.878923
iter:   2 12:14:44  -191.440802   -0.36  -1.54
iter:   3 12:14:58  -194.255558   -0.82  -1.63
iter:   4 12:15:11  -212.084723   -1.04  -1.74
iter:   5 12:15:25  -192.039650   -1.48  -1.64
iter:   6 12:15:38  -189.372690   -1.99  -1.83
iter:   7 12:15:50  -191.094079   -1.59  -1.94
iter:   8 12:16:02  -189.577569   -2.17  -2.03
iter:   9 12:16:15  -189.486770   -2.48  -2.11
iter:  10 12:16:27  -189.524060c  -2.35  -2.17
iter:  11 12:16:39  -188.585128   -2.98  -2.19
iter:  12 12:16:51  -188.517225   -2.74  -2.32
iter:  13 12:17:03  -188.398965c  -3.27  -2.58
iter:  14 12:17:15  -188.403781c  -3.79  -2.71
iter:  15 12:17:28  -188.517527c  -3.66  -2.73
iter:  16 12:17:43  -188.356115c  -3.90  -2.60
iter:  17 12:17:55  -188.372796c  -3.87  -2.92
iter:  18 12:18:07  -188.333120c  -4.31  -2.88
iter:  19 12:18:19  -188.332856c  -4.54  -3.06
iter:  20 12:18:31  -188.338252c  -4.66  -3.14
iter:  21 12:18:44  -188.335016c  -4.88  -3.11
iter:  22 12:18:56  -188.333360c  -4.79  -3.15
iter:  23 12:19:08  -188.330257c  -4.89  -3.21
iter:  24 12:19:20  -188.328934c  -5.24  -3.29
iter:  25 12:19:33  -188.329397c  -5.52  -3.33
iter:  26 12:19:45  -188.340750c  -4.86  -3.38
iter:  27 12:19:57  -188.356347c  -4.53  -3.24
iter:  28 12:20:10  -188.332234c  -4.88  -3.09
iter:  29 12:20:22  -188.330579c  -5.53  -3.50
iter:  30 12:20:36  -188.330620c  -6.12  -3.60
iter:  31 12:20:48  -188.330465c  -5.47  -3.68
iter:  32 12:21:00  -188.330643c  -5.85  -3.77
iter:  33 12:21:12  -188.330099c  -6.21  -3.77
iter:  34 12:21:24  -188.330408c  -6.22  -3.84
iter:  35 12:21:37  -188.330019c  -6.08  -3.82
iter:  36 12:21:49  -188.329977c  -6.36  -3.91
iter:  37 12:22:01  -188.329936c  -6.93  -3.90
iter:  38 12:22:13  -188.329675c  -6.41  -3.98
iter:  39 12:22:25  -188.330201c  -5.71  -3.97
iter:  40 12:22:37  -188.329575c  -6.13  -3.88
iter:  41 12:22:49  -188.329352c  -7.00  -4.20c
iter:  42 12:23:01  -188.329395c  -7.65c -4.50c

Converged after 42 iterations.

Dipole moment: (-0.435559, -0.154362, 0.148906) |e|*Ang

Energy contributions relative to reference atoms: (reference = -1116960.938401)

Kinetic:       +163.504782
Potential:     -120.021534
External:        +0.000000
XC:            -233.967649
Entropy (-ST):   -2.709657
Local:           +3.509835
SIC:             +0.000000
--------------------------
Free energy:   -189.684223
Extrapolated:  -188.329395

Showing all kpts
 Kpt  Band  Eigenvalues  Occupancy
  0   215     -1.62066    1.31222
  0   216     -1.61548    1.28867
  0   217     -1.57819    1.11017
  0   218     -1.57549    1.09682

  1   215     -1.59760    1.20474
  1   216     -1.58530    1.14515
  1   217     -1.58066    1.12240
  1   218     -1.57786    1.10857


Fermi level: -1.55606

No gap
No difference between direct/indirect transitions
Timing:                              incl.     excl.
-----------------------------------------------------------
Hamiltonian:                         1.287     0.002   0.0% |
 Atomic:                             0.627     0.002   0.0% |
  XC Correction:                     0.625     0.625   0.1% |
 Calculate atomic Hamiltonians:      0.298     0.298   0.1% |
 Communicate:                        0.000     0.000   0.0% |
 Initialize Hamiltonian:             0.001     0.001   0.0% |
 Poisson:                            0.003     0.003   0.0% |
 XC 3D grid:                         0.356     0.356   0.1% |
LCAO initialization:                41.422     0.043   0.0% |
 LCAO eigensolver:                   3.824     0.001   0.0% |
  Calculate projections:             0.011     0.011   0.0% |
  DenseAtomicCorrection:             0.008     0.008   0.0% |
  Distribute overlap matrix:         0.001     0.001   0.0% |
  Orbital Layouts:                   0.583     0.583   0.1% |
  Potential matrix:                  3.211     3.211   0.6% |
  Sum over cells:                    0.010     0.010   0.0% |
 LCAO to grid:                      36.755    36.755   6.5% |--|
 Set positions (LCAO WFS):           0.800     0.140   0.0% |
  Basic WFS set positions:           0.001     0.001   0.0% |
  Basis functions set positions:     0.000     0.000   0.0% |
  P tci:                             0.452     0.452   0.1% |
  ST tci:                            0.192     0.192   0.0% |
  mktci:                             0.015     0.015   0.0% |
PWDescriptor:                        0.012     0.012   0.0% |
SCF-cycle:                         524.243     0.051   0.0% |
 Davidson:                         425.015    66.350  11.7% |----|
  Apply H:                          62.222    60.189  10.6% |---|
   HMM T:                            2.033     2.033   0.4% |
  Subspace diag:                    85.755     0.012   0.0% |
   calc_h_matrix:                   71.989    11.037   1.9% ||
    Apply H:                        60.952    58.938  10.4% |---|
     HMM T:                          2.014     2.014   0.4% |
   diagonalize:                      2.811     2.811   0.5% |
   rotate_psi:                      10.943    10.943   1.9% ||
  calc. matrices:                  173.175    48.245   8.5% |--|
   Apply H:                        124.930   120.836  21.3% |--------|
    HMM T:                           4.094     4.094   0.7% |
  diagonalize:                      17.425    17.425   3.1% ||
  rotate_psi:                       20.089    20.089   3.5% ||
 Density:                           44.864     0.001   0.0% |
  Atomic density matrices:           0.199     0.199   0.0% |
  Mix:                              15.799    15.799   2.8% ||
  Multipole moments:                 0.013     0.013   0.0% |
  Pseudo density:                   28.852    28.595   5.0% |-|
   Symmetrize density:               0.257     0.257   0.0% |
 Hamiltonian:                       53.699     0.107   0.0% |
  Atomic:                           25.164     0.073   0.0% |
   XC Correction:                   25.091    25.091   4.4% |-|
  Calculate atomic Hamiltonians:    12.506    12.506   2.2% ||
  Communicate:                       0.000     0.000   0.0% |
  Poisson:                           0.149     0.149   0.0% |
  XC 3D grid:                       15.774    15.774   2.8% ||
 Orthonormalize:                     0.614     0.000   0.0% |
  calc_s_matrix:                     0.069     0.069   0.0% |
  inverse-cholesky:                  0.009     0.009   0.0% |
  projections:                       0.327     0.327   0.1% |
  rotate_psi_s:                      0.208     0.208   0.0% |
Set symmetry:                        0.001     0.001   0.0% |
Other:                               1.463     1.463   0.3% |
-----------------------------------------------------------
Total:                                       568.428 100.0%

Memory usage: 1.06 GiB
Date: Sat Mar 29 12:23:01 2025
