
  ___ ___ ___ _ _ _  
 |   |   |_  | | | | 
 | | | | | . | | | | 
 |__ |  _|___|_____|  24.6.0
 |___|_|             

User:   kerem@DESKTOP-CMKTO4T
Date:   Fri Mar 28 21:18:21 2025
Arch:   x86_64
Pid:    3767
CWD:    /home/kerem
Python: 3.12.9
gpaw:   /home/kerem/miniconda3/envs/gpaw-env/lib/python3.12/site-packages/gpaw
_gpaw:  /home/kerem/miniconda3/envs/gpaw-env/lib/python3.12/site-packages/
        _gpaw.cpython-312-x86_64-linux-gnu.so
ase:    /home/kerem/miniconda3/envs/gpaw-env/lib/python3.12/site-packages/ase (version 3.24.0)
numpy:  /home/kerem/miniconda3/envs/gpaw-env/lib/python3.12/site-packages/numpy (version 1.26.4)
scipy:  /home/kerem/miniconda3/envs/gpaw-env/lib/python3.12/site-packages/scipy (version 1.15.2)
libxc:  6.2.2
units:  Angstrom and eV
cores: 1
OpenMP: True
OMP_NUM_THREADS: 1

Input parameters:
  kpts: [2 2 1]
  mode: {ecut: 400.0,
         name: pw}
  xc: PBE

System changes: positions, numbers, cell, pbc, initial_charges, initial_magmoms 

Initialize ...

species:
  Ni:
    name: Nickel
    id: 0d9f38a9d6e76a2886f07bb4381f212b
    Z: 28.0
    valence: 16
    core: 12
    charge: 0.0
    file: /home/kerem/miniconda3/envs/gpaw-env/share/gpaw/Ni.PBE.gz
    compensation charges: {type: gauss,
                           rc: 0.36,
                           lmax: 2}
    cutoffs: {filter: 2.14,
              core: 1.98}
    projectors:
      #              energy  rcut
      - 4s(2.00)    -5.642   1.164
      - 3p(6.00)   -71.394   1.207
      - 4p(0.00)    -1.226   1.207
      - 3d(8.00)    -8.875   1.138
      -  s          21.570   1.164
      -  d          18.337   1.138
  
    # Using partial waves for Ni as LCAO basis

  H:
    name: Hydrogen
    id: d65de229564ff8ea4db303e23b6d1ecf
    Z: 1.0
    valence: 1
    core: 0
    charge: 0.0
    file: /home/kerem/miniconda3/envs/gpaw-env/share/gpaw/H.PBE.gz
    compensation charges: {type: gauss,
                           rc: 0.15,
                           lmax: 2}
    cutoffs: {filter: 0.85,
              core: 0.53}
    projectors:
      #              energy  rcut
      - 1s(1.00)    -6.494   0.476
      -  s          20.717   0.476
      -  p           0.000   0.476
  
    # Using partial waves for H as LCAO basis

Reference energy: -1116960.938401  # eV

Spin-paired calculation

Convergence criteria:
 Maximum [total energy] change in last 3 cyles: 0.0005 eV / valence electron
 Maximum integral of absolute [dens]ity change: 0.0001 electrons / valence electron
 Maximum integral of absolute [eigenst]ate change: 4e-08 eV^2 / valence electron
 Maximum number of scf [iter]ations: 333
 (Square brackets indicate name in SCF output, whereas a 'c' in
 the SCF output indicates the quantity has converged.)

Symmetries present (total): 2

  ( 1  0  0)  (-1  0  0)
  ( 0  1  0)  (-1  1  0)
  ( 0  0  1)  ( 0  0  1)
Note: your k-points are not as symmetric as your crystal!

4 k-points: 2 x 2 x 1 Monkhorst-Pack grid
2 k-points in the irreducible part of the Brillouin zone
       k-points in crystal coordinates                weights
   0:     0.25000000   -0.25000000    0.00000000          2/4
   1:     0.25000000    0.25000000    0.00000000          2/4

Wave functions: Plane wave expansion
  Cutoff energy: 400.000 eV
  Number of coefficients (min, max): 21105, 21124
  Pulay-stress correction: 0.000000 eV/Ang^3 (de/decut=0.000000)
  Using FFTW library
  ScaLapack parameters: grid=1x1, blocksize=None
  Wavefunction extrapolation:
    Improved wavefunction reuse through dual PAW basis 

Occupation numbers: Fermi-Dirac:
  width: 0.1000  # eV
 

Eigensolver
   Davidson(niter=2) 

Densities:
  Coarse grid: 35*35*112 grid
  Fine grid: 70*70*224 grid
  Total Charge: 0.000000 

Density mixing:
  Method: separate
  Backend: pulay
  Linear mixing parameter: 0.05
  old densities: 5
  Damping of long wavelength oscillations: 50 

Hamiltonian:
  XC and Coulomb potentials evaluated on a 70*70*224 grid
  Using the PBE Exchange-Correlation functional
  External potential:
    NoExternalPotential
 

XC parameters: PBE with 2 nearest neighbor stencil

Memory estimate:
  Process memory now: 993.79 MiB
  Calculator: 368.46 MiB
    Density: 65.71 MiB
      Arrays: 27.22 MiB
      Localized functions: 28.02 MiB
      Mixer: 10.47 MiB
    Hamiltonian: 18.48 MiB
      Arrays: 17.79 MiB
      XC: 0.00 MiB
      Poisson: 0.00 MiB
      vbar: 0.68 MiB
    Wavefunctions: 284.27 MiB
      Arrays psit_nG: 170.83 MiB
      Eigensolver: 97.75 MiB
      Projections: 4.01 MiB
      Projectors: 5.80 MiB
      PW-descriptor: 5.88 MiB

Total number of cores used: 1

Number of atoms: 29
Number of atomic orbitals: 326
Number of bands in calculation: 265
Number of valence electrons: 434
Bands to converge: occupied

... initialized

Initializing position-dependent things.

Density initialized from atomic densities
Creating initial wave functions:
  265 bands from LCAO basis set

                                         
                                         
                                         
                                         
                                         
                  H                      
                  H                      
                                         
                                         
                Ni    Ni    Ni           
           Ni    NNi   NNi   Ni          
       Ni    Ni    Ni                    
            Ni    Ni    Ni               
        Ni    Ni   NNi   Ni    Ni        
                                         
               Ni    Ni    Ni            
           Ni    Ni    Ni                
                                         
                                         
                                         
                                         

Positions:
   0 Ni     1.244508    0.718517   10.000000    ( 0.0000,  0.0000,  0.0000)
   1 Ni     3.733524    0.718517   10.000000    ( 0.0000,  0.0000,  0.0000)
   2 Ni     6.222540    0.718517   10.000000    ( 0.0000,  0.0000,  0.0000)
   3 Ni     2.489016    2.874068   10.000000    ( 0.0000,  0.0000,  0.0000)
   4 Ni     4.978032    2.874068   10.000000    ( 0.0000,  0.0000,  0.0000)
   5 Ni     7.467048    2.874068   10.000000    ( 0.0000,  0.0000,  0.0000)
   6 Ni     3.733524    5.029619   10.000000    ( 0.0000,  0.0000,  0.0000)
   7 Ni     6.222540    5.029619   10.000000    ( 0.0000,  0.0000,  0.0000)
   8 Ni     8.711556    5.029619   10.000000    ( 0.0000,  0.0000,  0.0000)
   9 Ni     0.000000    1.437034   12.032273    ( 0.0000,  0.0000,  0.0000)
  10 Ni     2.489016    1.437034   12.032273    ( 0.0000,  0.0000,  0.0000)
  11 Ni     4.978032    1.437034   12.032273    ( 0.0000,  0.0000,  0.0000)
  12 Ni     1.244508    3.592585   12.032273    ( 0.0000,  0.0000,  0.0000)
  13 Ni     3.733524    3.592585   12.032273    ( 0.0000,  0.0000,  0.0000)
  14 Ni     6.222540    3.592585   12.032273    ( 0.0000,  0.0000,  0.0000)
  15 Ni     2.489016    5.748136   12.032273    ( 0.0000,  0.0000,  0.0000)
  16 Ni     4.978032    5.748136   12.032273    ( 0.0000,  0.0000,  0.0000)
  17 Ni     7.467048    5.748136   12.032273    ( 0.0000,  0.0000,  0.0000)
  18 Ni     0.000000    0.000000   14.064546    ( 0.0000,  0.0000,  0.0000)
  19 Ni     2.489016    0.000000   14.064546    ( 0.0000,  0.0000,  0.0000)
  20 Ni     4.978032    0.000000   14.064546    ( 0.0000,  0.0000,  0.0000)
  21 Ni     1.244508    2.155551   14.064546    ( 0.0000,  0.0000,  0.0000)
  22 Ni     3.733524    2.155551   14.064546    ( 0.0000,  0.0000,  0.0000)
  23 Ni     6.222540    2.155551   14.064546    ( 0.0000,  0.0000,  0.0000)
  24 Ni     2.489016    4.311102   14.064546    ( 0.0000,  0.0000,  0.0000)
  25 Ni     4.978032    4.311102   14.064546    ( 0.0000,  0.0000,  0.0000)
  26 Ni     7.467048    4.311102   14.064546    ( 0.0000,  0.0000,  0.0000)
  27 H      3.733524    3.233326   16.564546    ( 0.0000,  0.0000,  0.0000)
  28 H      3.733524    3.233326   17.304546    ( 0.0000,  0.0000,  0.0000)

Unit cell:
           periodic     x           y           z      points  spacing
  1. axis:    yes    7.467048    0.000000    0.000000    35     0.1848
  2. axis:    yes    3.733524    6.466653    0.000000    35     0.1848
  3. axis:    no     0.000000    0.000000   24.064546   112     0.2149

  Lengths:   7.467048   7.467048  24.064546
  Angles:   90.000000  90.000000  60.000000

Effective grid spacing dv^(1/3) = 0.2038

     iter     time        total  log10-change:
                         energy   eigst   dens
iter:   1 21:19:28  -194.244650
iter:   2 21:19:43  -191.832876   -0.36  -1.54
iter:   3 21:19:57  -192.245136   -0.82  -1.63
iter:   4 21:20:19  -206.130480   -1.04  -1.75
iter:   5 21:20:34  -192.496260   -1.49  -1.67
iter:   6 21:20:56  -189.553800   -2.06  -1.83
iter:   7 21:21:23  -190.522369   -1.64  -1.94
iter:   8 21:21:42  -189.600170   -2.32  -2.07
iter:   9 21:22:00  -188.868620   -2.83  -2.15
iter:  10 21:22:14  -189.706780   -2.18  -2.22
iter:  11 21:22:37  -188.936782   -2.75  -2.32
iter:  12 21:22:51  -188.799998   -2.81  -2.38
iter:  13 21:23:08  -188.696669   -3.50  -2.56
iter:  14 21:23:27  -188.659170c  -3.99  -2.62
iter:  15 21:23:50  -188.703275c  -4.06  -2.67
iter:  16 21:24:05  -188.599255c  -3.83  -2.67
iter:  17 21:24:29  -188.619138c  -4.71  -2.88
iter:  18 21:24:43  -188.635904c  -3.86  -2.87
iter:  19 21:25:06  -188.686629c  -3.82  -2.92
iter:  20 21:25:20  -188.632656c  -4.02  -2.87
iter:  21 21:25:37  -188.623399c  -4.32  -3.01
iter:  22 21:25:50  -188.618708c  -4.88  -3.08
iter:  23 21:26:09  -188.685148c  -4.15  -3.16
iter:  24 21:26:27  -188.615446c  -4.41  -2.91
iter:  25 21:26:50  -188.612168c  -4.96  -3.32
iter:  26 21:27:04  -188.609152c  -5.10  -3.48
iter:  27 21:27:26  -188.608422c  -5.70  -3.65
iter:  28 21:27:42  -188.608396c  -6.34  -3.73
iter:  29 21:28:05  -188.609485c  -5.90  -3.79
iter:  30 21:28:21  -188.609261c  -5.68  -3.70
iter:  31 21:28:45  -188.608512c  -6.37  -3.72
iter:  32 21:29:04  -188.608440c  -6.69  -3.89
iter:  33 21:29:24  -188.608683c  -6.36  -3.95
iter:  34 21:29:42  -188.608828c  -6.41  -3.97
iter:  35 21:29:56  -188.609223c  -6.40  -4.03c
iter:  36 21:30:18  -188.609419c  -6.29  -3.99
iter:  37 21:30:35  -188.609142c  -6.51  -3.91
iter:  38 21:30:53  -188.609235c  -6.92  -4.19c
iter:  39 21:31:07  -188.609263c  -6.61  -4.26c
iter:  40 21:31:30  -188.609260c  -7.00  -4.25c
iter:  41 21:31:51  -188.609223c  -7.63c -4.36c

Converged after 41 iterations.

Dipole moment: (-0.280304, -0.151288, 0.038985) |e|*Ang

Energy contributions relative to reference atoms: (reference = -1116960.938401)

Kinetic:       +160.377236
Potential:     -118.574754
External:        +0.000000
XC:            -232.563937
Entropy (-ST):   -2.737002
Local:           +3.520732
SIC:             +0.000000
--------------------------
Free energy:   -189.977725
Extrapolated:  -188.609223

Showing all kpts
 Kpt  Band  Eigenvalues  Occupancy
  0   215     -1.73202    1.31136
  0   216     -1.73059    1.30489
  0   217     -1.68820    1.10257
  0   218     -1.68582    1.09081

  1   215     -1.70528    1.18615
  1   216     -1.69369    1.12966
  1   217     -1.68825    1.10284
  1   218     -1.68748    1.09902


Fermi level: -1.66761

No gap
No difference between direct/indirect transitions
Timing:                              incl.     excl.
-----------------------------------------------------------
Hamiltonian:                         1.385     0.003   0.0% |
 Atomic:                             0.603     0.002   0.0% |
  XC Correction:                     0.602     0.602   0.1% |
 Calculate atomic Hamiltonians:      0.478     0.478   0.1% |
 Communicate:                        0.000     0.000   0.0% |
 Initialize Hamiltonian:             0.001     0.001   0.0% |
 Poisson:                            0.004     0.004   0.0% |
 XC 3D grid:                         0.295     0.295   0.0% |
LCAO initialization:                43.893     0.041   0.0% |
 LCAO eigensolver:                   3.642     0.001   0.0% |
  Calculate projections:             0.007     0.007   0.0% |
  DenseAtomicCorrection:             0.236     0.236   0.0% |
  Distribute overlap matrix:         0.001     0.001   0.0% |
  Orbital Layouts:                   0.082     0.082   0.0% |
  Potential matrix:                  3.283     3.283   0.4% |
  Sum over cells:                    0.032     0.032   0.0% |
 LCAO to grid:                      38.570    38.570   4.8% |-|
 Set positions (LCAO WFS):           1.641     0.630   0.1% |
  Basic WFS set positions:           0.001     0.001   0.0% |
  Basis functions set positions:     0.000     0.000   0.0% |
  P tci:                             0.826     0.826   0.1% |
  ST tci:                            0.172     0.172   0.0% |
  mktci:                             0.013     0.013   0.0% |
PWDescriptor:                        0.013     0.013   0.0% |
SCF-cycle:                         763.375     0.074   0.0% |
 Davidson:                         650.701   170.292  21.0% |-------|
  Apply H:                          76.430    74.777   9.2% |---|
   HMM T:                            1.653     1.653   0.2% |
  Subspace diag:                   118.715     0.013   0.0% |
   calc_h_matrix:                   90.343    18.236   2.3% ||
    Apply H:                        72.107    70.493   8.7% |--|
     HMM T:                          1.614     1.614   0.2% |
   diagonalize:                     12.007    12.007   1.5% ||
   rotate_psi:                      16.352    16.352   2.0% ||
  calc. matrices:                  230.869    82.938  10.2% |---|
   Apply H:                        147.931   144.540  17.8% |------|
    HMM T:                           3.391     3.391   0.4% |
  diagonalize:                      20.209    20.209   2.5% ||
  rotate_psi:                       34.187    34.187   4.2% |-|
 Density:                           56.583     0.001   0.0% |
  Atomic density matrices:           0.182     0.182   0.0% |
  Mix:                              24.605    24.605   3.0% ||
  Multipole moments:                 0.015     0.015   0.0% |
  Pseudo density:                   31.781    31.516   3.9% |-|
   Symmetrize density:               0.265     0.265   0.0% |
 Hamiltonian:                       55.264     0.100   0.0% |
  Atomic:                           26.742     0.072   0.0% |
   XC Correction:                   26.670    26.670   3.3% ||
  Calculate atomic Hamiltonians:    17.128    17.128   2.1% ||
  Communicate:                       0.000     0.000   0.0% |
  Poisson:                           0.137     0.137   0.0% |
  XC 3D grid:                       11.157    11.157   1.4% ||
 Orthonormalize:                     0.753     0.000   0.0% |
  calc_s_matrix:                     0.088     0.088   0.0% |
  inverse-cholesky:                  0.017     0.017   0.0% |
  projections:                       0.391     0.391   0.0% |
  rotate_psi_s:                      0.256     0.256   0.0% |
Set symmetry:                        0.001     0.001   0.0% |
Other:                               1.467     1.467   0.2% |
-----------------------------------------------------------
Total:                                       810.133 100.0%

Memory usage: 1018.46 MiB
Date: Fri Mar 28 21:31:51 2025
