
  ___ ___ ___ _ _ _  
 |   |   |_  | | | | 
 | | | | | . | | | | 
 |__ |  _|___|_____|  24.6.0
 |___|_|             

User:   kerem@DESKTOP-CMKTO4T
Date:   Sat Mar 29 18:44:54 2025
Arch:   x86_64
Pid:    1486
CWD:    /home/kerem
Python: 3.12.9
gpaw:   /home/kerem/miniconda3/envs/gpaw-env/lib/python3.12/site-packages/gpaw
_gpaw:  /home/kerem/miniconda3/envs/gpaw-env/lib/python3.12/site-packages/
        _gpaw.cpython-312-x86_64-linux-gnu.so
ase:    /home/kerem/miniconda3/envs/gpaw-env/lib/python3.12/site-packages/ase (version 3.24.0)
numpy:  /home/kerem/miniconda3/envs/gpaw-env/lib/python3.12/site-packages/numpy (version 1.26.4)
scipy:  /home/kerem/miniconda3/envs/gpaw-env/lib/python3.12/site-packages/scipy (version 1.15.2)
libxc:  6.2.2
units:  Angstrom and eV
cores: 1
OpenMP: True
OMP_NUM_THREADS: 1

Input parameters:
  kpts: [2 2 1]
  mode: {ecut: 400.0,
         name: pw}
  xc: PBE

System changes: positions, numbers, cell, pbc, initial_charges, initial_magmoms 

Initialize ...

species:
  Ni:
    name: Nickel
    id: 0d9f38a9d6e76a2886f07bb4381f212b
    Z: 28.0
    valence: 16
    core: 12
    charge: 0.0
    file: /home/kerem/miniconda3/envs/gpaw-env/share/gpaw/Ni.PBE.gz
    compensation charges: {type: gauss,
                           rc: 0.36,
                           lmax: 2}
    cutoffs: {filter: 2.14,
              core: 1.98}
    projectors:
      #              energy  rcut
      - 4s(2.00)    -5.642   1.164
      - 3p(6.00)   -71.394   1.207
      - 4p(0.00)    -1.226   1.207
      - 3d(8.00)    -8.875   1.138
      -  s          21.570   1.164
      -  d          18.337   1.138
  
    # Using partial waves for Ni as LCAO basis

  H:
    name: Hydrogen
    id: d65de229564ff8ea4db303e23b6d1ecf
    Z: 1.0
    valence: 1
    core: 0
    charge: 0.0
    file: /home/kerem/miniconda3/envs/gpaw-env/share/gpaw/H.PBE.gz
    compensation charges: {type: gauss,
                           rc: 0.15,
                           lmax: 2}
    cutoffs: {filter: 0.85,
              core: 0.53}
    projectors:
      #              energy  rcut
      - 1s(1.00)    -6.494   0.476
      -  s          20.717   0.476
      -  p           0.000   0.476
  
    # Using partial waves for H as LCAO basis

Reference energy: -1116960.938401  # eV

Spin-paired calculation

Convergence criteria:
 Maximum [total energy] change in last 3 cyles: 0.0005 eV / valence electron
 Maximum integral of absolute [dens]ity change: 0.0001 electrons / valence electron
 Maximum integral of absolute [eigenst]ate change: 4e-08 eV^2 / valence electron
 Maximum number of scf [iter]ations: 333
 (Square brackets indicate name in SCF output, whereas a 'c' in
 the SCF output indicates the quantity has converged.)

Symmetries present (total): 2

  ( 1  0  0)  (-1  0  0)
  ( 0  1  0)  (-1  1  0)
  ( 0  0  1)  ( 0  0  1)
Note: your k-points are not as symmetric as your crystal!

4 k-points: 2 x 2 x 1 Monkhorst-Pack grid
2 k-points in the irreducible part of the Brillouin zone
       k-points in crystal coordinates                weights
   0:     0.25000000   -0.25000000    0.00000000          2/4
   1:     0.25000000    0.25000000    0.00000000          2/4

Wave functions: Plane wave expansion
  Cutoff energy: 400.000 eV
  Number of coefficients (min, max): 21105, 21124
  Pulay-stress correction: 0.000000 eV/Ang^3 (de/decut=0.000000)
  Using FFTW library
  ScaLapack parameters: grid=1x1, blocksize=None
  Wavefunction extrapolation:
    Improved wavefunction reuse through dual PAW basis 

Occupation numbers: Fermi-Dirac:
  width: 0.1000  # eV
 

Eigensolver
   Davidson(niter=2) 

Densities:
  Coarse grid: 35*35*112 grid
  Fine grid: 70*70*224 grid
  Total Charge: 0.000000 

Density mixing:
  Method: separate
  Backend: pulay
  Linear mixing parameter: 0.05
  old densities: 5
  Damping of long wavelength oscillations: 50 

Hamiltonian:
  XC and Coulomb potentials evaluated on a 70*70*224 grid
  Using the PBE Exchange-Correlation functional
  External potential:
    NoExternalPotential
 

XC parameters: PBE with 2 nearest neighbor stencil

Memory estimate:
  Process memory now: 1007.14 MiB
  Calculator: 368.46 MiB
    Density: 65.71 MiB
      Arrays: 27.22 MiB
      Localized functions: 28.02 MiB
      Mixer: 10.47 MiB
    Hamiltonian: 18.48 MiB
      Arrays: 17.79 MiB
      XC: 0.00 MiB
      Poisson: 0.00 MiB
      vbar: 0.68 MiB
    Wavefunctions: 284.27 MiB
      Arrays psit_nG: 170.83 MiB
      Eigensolver: 97.75 MiB
      Projections: 4.01 MiB
      Projectors: 5.80 MiB
      PW-descriptor: 5.88 MiB

Total number of cores used: 1

Number of atoms: 29
Number of atomic orbitals: 326
Number of bands in calculation: 265
Number of valence electrons: 434
Bands to converge: occupied

... initialized

Initializing position-dependent things.

Density initialized from atomic densities
Creating initial wave functions:
  265 bands from LCAO basis set

                                         
                                         
                                         
                                         
                                         
                  H                      
                  H                      
                                         
                                         
                                         
                                         
                                         
                                         
                                         
                                         
                                         
                                         
                                         
                                         
                                         
                                         
                                         
                Ni    Ni    Ni           
           Ni    NNi   NNi   Ni          
       Ni    Ni    Ni                    
            Ni    Ni    Ni               
        Ni    Ni   NNi   Ni    Ni        
                                         
               Ni    Ni    Ni            
           Ni    Ni    Ni                
                                         
                                         
                                         
                                         

Positions:
   0 Ni     1.244508    0.718517   10.000000    ( 0.0000,  0.0000,  0.0000)
   1 Ni     3.733524    0.718517   10.000000    ( 0.0000,  0.0000,  0.0000)
   2 Ni     6.222540    0.718517   10.000000    ( 0.0000,  0.0000,  0.0000)
   3 Ni     2.489016    2.874068   10.000000    ( 0.0000,  0.0000,  0.0000)
   4 Ni     4.978032    2.874068   10.000000    ( 0.0000,  0.0000,  0.0000)
   5 Ni     7.467048    2.874068   10.000000    ( 0.0000,  0.0000,  0.0000)
   6 Ni     3.733524    5.029619   10.000000    ( 0.0000,  0.0000,  0.0000)
   7 Ni     6.222540    5.029619   10.000000    ( 0.0000,  0.0000,  0.0000)
   8 Ni     8.711556    5.029619   10.000000    ( 0.0000,  0.0000,  0.0000)
   9 Ni     0.000000    1.437034   12.032273    ( 0.0000,  0.0000,  0.0000)
  10 Ni     2.489016    1.437034   12.032273    ( 0.0000,  0.0000,  0.0000)
  11 Ni     4.978032    1.437034   12.032273    ( 0.0000,  0.0000,  0.0000)
  12 Ni     1.244508    3.592585   12.032273    ( 0.0000,  0.0000,  0.0000)
  13 Ni     3.733524    3.592585   12.032273    ( 0.0000,  0.0000,  0.0000)
  14 Ni     6.222540    3.592585   12.032273    ( 0.0000,  0.0000,  0.0000)
  15 Ni     2.489016    5.748136   12.032273    ( 0.0000,  0.0000,  0.0000)
  16 Ni     4.978032    5.748136   12.032273    ( 0.0000,  0.0000,  0.0000)
  17 Ni     7.467048    5.748136   12.032273    ( 0.0000,  0.0000,  0.0000)
  18 Ni     0.000000    0.000000   14.064546    ( 0.0000,  0.0000,  0.0000)
  19 Ni     2.489016    0.000000   14.064546    ( 0.0000,  0.0000,  0.0000)
  20 Ni     4.978032    0.000000   14.064546    ( 0.0000,  0.0000,  0.0000)
  21 Ni     1.244508    2.155551   14.064546    ( 0.0000,  0.0000,  0.0000)
  22 Ni     3.733524    2.155551   14.064546    ( 0.0000,  0.0000,  0.0000)
  23 Ni     6.222540    2.155551   14.064546    ( 0.0000,  0.0000,  0.0000)
  24 Ni     2.489016    4.311102   14.064546    ( 0.0000,  0.0000,  0.0000)
  25 Ni     4.978032    4.311102   14.064546    ( 0.0000,  0.0000,  0.0000)
  26 Ni     7.467048    4.311102   14.064546    ( 0.0000,  0.0000,  0.0000)
  27 H      3.733524    3.233326   27.064546    ( 0.0000,  0.0000,  0.0000)
  28 H      3.733524    3.233326   27.804546    ( 0.0000,  0.0000,  0.0000)

Unit cell:
           periodic     x           y           z      points  spacing
  1. axis:    yes    7.467048    0.000000    0.000000    35     0.1848
  2. axis:    yes    3.733524    6.466653    0.000000    35     0.1848
  3. axis:    no     0.000000    0.000000   24.064546   112     0.2149

  Lengths:   7.467048   7.467048  24.064546
  Angles:   90.000000  90.000000  60.000000

Effective grid spacing dv^(1/3) = 0.2038

     iter     time        total  log10-change:
                         energy   eigst   dens
iter:   1 18:45:46  -194.466550
iter:   2 18:46:00  -191.965599   -0.37  -1.53
iter:   3 18:46:13  -192.048042   -0.81  -1.63
iter:   4 18:46:26  -193.555832   -1.14  -1.76
iter:   5 18:46:41  -200.621662   -1.37  -1.79
iter:   6 18:46:54  -195.373623   -1.87  -1.73
iter:   7 18:47:08  -198.429976   -1.25  -1.87
iter:   8 18:47:21  -193.083239   -1.82  -1.90
iter:   9 18:47:34  -189.448669   -2.41  -2.06
iter:  10 18:47:48  -188.866918   -3.28  -2.17
iter:  11 18:48:01  -188.939336   -2.90  -2.27
iter:  12 18:48:16  -188.939246c  -2.98  -2.37
iter:  13 18:48:28  -188.733609c  -2.90  -2.48
iter:  14 18:48:41  -188.683444   -3.51  -2.68
iter:  15 18:48:56  -188.907595   -3.35  -2.67
iter:  16 18:49:09  -188.699481   -3.49  -2.59
iter:  17 18:49:23  -188.696963c  -3.26  -2.69
iter:  18 18:49:36  -188.672570c  -3.88  -2.81
iter:  19 18:49:49  -188.641645c  -4.27  -2.87
iter:  20 18:50:03  -188.627072c  -4.54  -3.04
iter:  21 18:50:16  -188.621672c  -4.76  -3.16
iter:  22 18:50:30  -188.627276c  -5.28  -3.24
iter:  23 18:50:43  -188.632303c  -4.66  -3.20
iter:  24 18:50:56  -188.631695c  -4.50  -3.16
iter:  25 18:51:10  -188.629773c  -4.72  -3.22
iter:  26 18:51:23  -188.632135c  -4.99  -3.24
iter:  27 18:51:38  -188.625408c  -5.29  -3.23
iter:  28 18:51:50  -188.672518c  -4.15  -3.39
iter:  29 18:52:03  -188.621522c  -4.57  -3.04
iter:  30 18:52:18  -188.620828c  -6.00  -3.66
iter:  31 18:52:31  -188.620415c  -6.48  -3.89
iter:  32 18:52:45  -188.620334c  -6.86  -4.04c
iter:  33 18:52:58  -188.620306c  -7.06  -4.27c
iter:  34 18:53:11  -188.620408c  -7.42c -4.46c

Converged after 34 iterations.

Dipole moment: (-0.275307, -0.150077, -0.001010) |e|*Ang

Energy contributions relative to reference atoms: (reference = -1116960.938401)

Kinetic:       +160.705967
Potential:     -119.196731
External:        +0.000000
XC:            -232.266995
Entropy (-ST):   -2.741418
Local:           +3.508059
SIC:             +0.000000
--------------------------
Free energy:   -189.991117
Extrapolated:  -188.620408

Showing all kpts
 Kpt  Band  Eigenvalues  Occupancy
  0   215     -1.76844    1.30735
  0   216     -1.76752    1.30319
  0   217     -1.72541    1.10211
  0   218     -1.72296    1.08999

  1   215     -1.74231    1.18485
  1   216     -1.73077    1.12855
  1   217     -1.72541    1.10213
  1   218     -1.72459    1.09808


Fermi level: -1.70491

No gap
No difference between direct/indirect transitions
Timing:                              incl.     excl.
-----------------------------------------------------------
Hamiltonian:                         1.210     0.003   0.0% |
 Atomic:                             0.598     0.002   0.0% |
  XC Correction:                     0.596     0.596   0.1% |
 Calculate atomic Hamiltonians:      0.297     0.297   0.1% |
 Communicate:                        0.000     0.000   0.0% |
 Initialize Hamiltonian:             0.002     0.002   0.0% |
 Poisson:                            0.004     0.004   0.0% |
 XC 3D grid:                         0.306     0.306   0.1% |
LCAO initialization:                37.580     0.042   0.0% |
 LCAO eigensolver:                   3.207     0.000   0.0% |
  Calculate projections:             0.006     0.006   0.0% |
  DenseAtomicCorrection:             0.150     0.150   0.0% |
  Distribute overlap matrix:         0.001     0.001   0.0% |
  Orbital Layouts:                   0.068     0.068   0.0% |
  Potential matrix:                  2.921     2.921   0.6% |
  Sum over cells:                    0.061     0.061   0.0% |
 LCAO to grid:                      33.420    33.420   6.7% |--|
 Set positions (LCAO WFS):           0.911     0.266   0.1% |
  Basic WFS set positions:           0.001     0.001   0.0% |
  Basis functions set positions:     0.000     0.000   0.0% |
  P tci:                             0.463     0.463   0.1% |
  ST tci:                            0.170     0.170   0.0% |
  mktci:                             0.012     0.012   0.0% |
PWDescriptor:                        0.015     0.015   0.0% |
SCF-cycle:                         456.737     0.045   0.0% |
 Davidson:                         373.403    68.319  13.7% |----|
  Apply H:                          49.933    48.416   9.7% |---|
   HMM T:                            1.517     1.517   0.3% |
  Subspace diag:                    76.018     0.009   0.0% |
   calc_h_matrix:                   58.123    10.556   2.1% ||
    Apply H:                        47.567    46.053   9.3% |---|
     HMM T:                          1.513     1.513   0.3% |
   diagonalize:                      2.611     2.611   0.5% |
   rotate_psi:                      15.276    15.276   3.1% ||
  calc. matrices:                  147.944    47.895   9.6% |---|
   Apply H:                        100.049    96.998  19.5% |-------|
    HMM T:                           3.051     3.051   0.6% |
  diagonalize:                      12.564    12.564   2.5% ||
  rotate_psi:                       18.625    18.625   3.7% ||
 Density:                           38.600     0.001   0.0% |
  Atomic density matrices:           0.154     0.154   0.0% |
  Mix:                              16.028    16.028   3.2% ||
  Multipole moments:                 0.012     0.012   0.0% |
  Pseudo density:                   22.406    22.206   4.5% |-|
   Symmetrize density:               0.200     0.200   0.0% |
 Hamiltonian:                       43.994     0.080   0.0% |
  Atomic:                           19.584     0.056   0.0% |
   XC Correction:                   19.528    19.528   3.9% |-|
  Calculate atomic Hamiltonians:    13.752    13.752   2.8% ||
  Communicate:                       0.000     0.000   0.0% |
  Poisson:                           0.108     0.108   0.0% |
  XC 3D grid:                       10.470    10.470   2.1% ||
 Orthonormalize:                     0.694     0.000   0.0% |
  calc_s_matrix:                     0.082     0.082   0.0% |
  inverse-cholesky:                  0.018     0.018   0.0% |
  projections:                       0.337     0.337   0.1% |
  rotate_psi_s:                      0.256     0.256   0.1% |
Set symmetry:                        0.001     0.001   0.0% |
Other:                               1.389     1.389   0.3% |
-----------------------------------------------------------
Total:                                       496.932 100.0%

Memory usage: 1021.75 MiB
Date: Sat Mar 29 18:53:11 2025
