
  ___ ___ ___ _ _ _  
 |   |   |_  | | | | 
 | | | | | . | | | | 
 |__ |  _|___|_____|  24.6.0
 |___|_|             

User:   kerem@DESKTOP-CMKTO4T
Date:   Sat Mar 29 11:42:48 2025
Arch:   x86_64
Pid:    640
CWD:    /home/kerem
Python: 3.12.9
gpaw:   /home/kerem/miniconda3/envs/gpaw-env/lib/python3.12/site-packages/gpaw
_gpaw:  /home/kerem/miniconda3/envs/gpaw-env/lib/python3.12/site-packages/
        _gpaw.cpython-312-x86_64-linux-gnu.so
ase:    /home/kerem/miniconda3/envs/gpaw-env/lib/python3.12/site-packages/ase (version 3.24.0)
numpy:  /home/kerem/miniconda3/envs/gpaw-env/lib/python3.12/site-packages/numpy (version 1.26.4)
scipy:  /home/kerem/miniconda3/envs/gpaw-env/lib/python3.12/site-packages/scipy (version 1.15.2)
libxc:  6.2.2
units:  Angstrom and eV
cores: 1
OpenMP: True
OMP_NUM_THREADS: 1

Input parameters:
  kpts: [2 2 1]
  mode: {ecut: 400.0,
         name: pw}
  xc: PBE

System changes: positions, numbers, cell, pbc, initial_charges, initial_magmoms 

Initialize ...

species:
  Ni:
    name: Nickel
    id: 0d9f38a9d6e76a2886f07bb4381f212b
    Z: 28.0
    valence: 16
    core: 12
    charge: 0.0
    file: /home/kerem/miniconda3/envs/gpaw-env/share/gpaw/Ni.PBE.gz
    compensation charges: {type: gauss,
                           rc: 0.36,
                           lmax: 2}
    cutoffs: {filter: 2.14,
              core: 1.98}
    projectors:
      #              energy  rcut
      - 4s(2.00)    -5.642   1.164
      - 3p(6.00)   -71.394   1.207
      - 4p(0.00)    -1.226   1.207
      - 3d(8.00)    -8.875   1.138
      -  s          21.570   1.164
      -  d          18.337   1.138
  
    # Using partial waves for Ni as LCAO basis

  H:
    name: Hydrogen
    id: d65de229564ff8ea4db303e23b6d1ecf
    Z: 1.0
    valence: 1
    core: 0
    charge: 0.0
    file: /home/kerem/miniconda3/envs/gpaw-env/share/gpaw/H.PBE.gz
    compensation charges: {type: gauss,
                           rc: 0.15,
                           lmax: 2}
    cutoffs: {filter: 0.85,
              core: 0.53}
    projectors:
      #              energy  rcut
      - 1s(1.00)    -6.494   0.476
      -  s          20.717   0.476
      -  p           0.000   0.476
  
    # Using partial waves for H as LCAO basis

Reference energy: -1116960.938401  # eV

Spin-paired calculation

Convergence criteria:
 Maximum [total energy] change in last 3 cyles: 0.0005 eV / valence electron
 Maximum integral of absolute [dens]ity change: 0.0001 electrons / valence electron
 Maximum integral of absolute [eigenst]ate change: 4e-08 eV^2 / valence electron
 Maximum number of scf [iter]ations: 333
 (Square brackets indicate name in SCF output, whereas a 'c' in
 the SCF output indicates the quantity has converged.)

Symmetries present (total): 2

  ( 1  0  0)  (-1  0  0)
  ( 0  1  0)  (-1  1  0)
  ( 0  0  1)  ( 0  0  1)
Note: your k-points are not as symmetric as your crystal!

4 k-points: 2 x 2 x 1 Monkhorst-Pack grid
2 k-points in the irreducible part of the Brillouin zone
       k-points in crystal coordinates                weights
   0:     0.25000000   -0.25000000    0.00000000          2/4
   1:     0.25000000    0.25000000    0.00000000          2/4

Wave functions: Plane wave expansion
  Cutoff energy: 400.000 eV
  Number of coefficients (min, max): 21105, 21124
  Pulay-stress correction: 0.000000 eV/Ang^3 (de/decut=0.000000)
  Using FFTW library
  ScaLapack parameters: grid=1x1, blocksize=None
  Wavefunction extrapolation:
    Improved wavefunction reuse through dual PAW basis 

Occupation numbers: Fermi-Dirac:
  width: 0.1000  # eV
 

Eigensolver
   Davidson(niter=2) 

Densities:
  Coarse grid: 35*35*112 grid
  Fine grid: 70*70*224 grid
  Total Charge: 0.000000 

Density mixing:
  Method: separate
  Backend: pulay
  Linear mixing parameter: 0.05
  old densities: 5
  Damping of long wavelength oscillations: 50 

Hamiltonian:
  XC and Coulomb potentials evaluated on a 70*70*224 grid
  Using the PBE Exchange-Correlation functional
  External potential:
    NoExternalPotential
 

XC parameters: PBE with 2 nearest neighbor stencil

Memory estimate:
  Process memory now: 1070.60 MiB
  Calculator: 368.46 MiB
    Density: 65.71 MiB
      Arrays: 27.22 MiB
      Localized functions: 28.02 MiB
      Mixer: 10.47 MiB
    Hamiltonian: 18.48 MiB
      Arrays: 17.79 MiB
      XC: 0.00 MiB
      Poisson: 0.00 MiB
      vbar: 0.68 MiB
    Wavefunctions: 284.27 MiB
      Arrays psit_nG: 170.83 MiB
      Eigensolver: 97.75 MiB
      Projections: 4.01 MiB
      Projectors: 5.80 MiB
      PW-descriptor: 5.88 MiB

Total number of cores used: 1

Number of atoms: 29
Number of atomic orbitals: 326
Number of bands in calculation: 265
Number of valence electrons: 434
Bands to converge: occupied

... initialized

Initializing position-dependent things.

Density initialized from atomic densities
Creating initial wave functions:
  265 bands from LCAO basis set

                                         
                                         
                                         
                                         
                                         
                  H                      
                  H                      
                Ni    Ni    Ni           
           Ni    NNi   NNi   Ni          
       Ni    Ni    Ni                    
            Ni    Ni    Ni               
        Ni    Ni   NNi   Ni    Ni        
                                         
               Ni    Ni    Ni            
           Ni    Ni    Ni                
                                         
                                         
                                         
                                         

Positions:
   0 Ni     1.244508    0.718517   10.000000    ( 0.0000,  0.0000,  0.0000)
   1 Ni     3.733524    0.718517   10.000000    ( 0.0000,  0.0000,  0.0000)
   2 Ni     6.222540    0.718517   10.000000    ( 0.0000,  0.0000,  0.0000)
   3 Ni     2.489016    2.874068   10.000000    ( 0.0000,  0.0000,  0.0000)
   4 Ni     4.978032    2.874068   10.000000    ( 0.0000,  0.0000,  0.0000)
   5 Ni     7.467048    2.874068   10.000000    ( 0.0000,  0.0000,  0.0000)
   6 Ni     3.733524    5.029619   10.000000    ( 0.0000,  0.0000,  0.0000)
   7 Ni     6.222540    5.029619   10.000000    ( 0.0000,  0.0000,  0.0000)
   8 Ni     8.711556    5.029619   10.000000    ( 0.0000,  0.0000,  0.0000)
   9 Ni     0.000000    1.437034   12.032273    ( 0.0000,  0.0000,  0.0000)
  10 Ni     2.489016    1.437034   12.032273    ( 0.0000,  0.0000,  0.0000)
  11 Ni     4.978032    1.437034   12.032273    ( 0.0000,  0.0000,  0.0000)
  12 Ni     1.244508    3.592585   12.032273    ( 0.0000,  0.0000,  0.0000)
  13 Ni     3.733524    3.592585   12.032273    ( 0.0000,  0.0000,  0.0000)
  14 Ni     6.222540    3.592585   12.032273    ( 0.0000,  0.0000,  0.0000)
  15 Ni     2.489016    5.748136   12.032273    ( 0.0000,  0.0000,  0.0000)
  16 Ni     4.978032    5.748136   12.032273    ( 0.0000,  0.0000,  0.0000)
  17 Ni     7.467048    5.748136   12.032273    ( 0.0000,  0.0000,  0.0000)
  18 Ni     0.000000    0.000000   14.064546    ( 0.0000,  0.0000,  0.0000)
  19 Ni     2.489016    0.000000   14.064546    ( 0.0000,  0.0000,  0.0000)
  20 Ni     4.978032    0.000000   14.064546    ( 0.0000,  0.0000,  0.0000)
  21 Ni     1.244508    2.155551   14.064546    ( 0.0000,  0.0000,  0.0000)
  22 Ni     3.733524    2.155551   14.064546    ( 0.0000,  0.0000,  0.0000)
  23 Ni     6.222540    2.155551   14.064546    ( 0.0000,  0.0000,  0.0000)
  24 Ni     2.489016    4.311102   14.064546    ( 0.0000,  0.0000,  0.0000)
  25 Ni     4.978032    4.311102   14.064546    ( 0.0000,  0.0000,  0.0000)
  26 Ni     7.467048    4.311102   14.064546    ( 0.0000,  0.0000,  0.0000)
  27 H      3.733524    3.233326   15.264546    ( 0.0000,  0.0000,  0.0000)
  28 H      3.733524    3.233326   16.004546    ( 0.0000,  0.0000,  0.0000)

Unit cell:
           periodic     x           y           z      points  spacing
  1. axis:    yes    7.467048    0.000000    0.000000    35     0.1848
  2. axis:    yes    3.733524    6.466653    0.000000    35     0.1848
  3. axis:    no     0.000000    0.000000   24.064546   112     0.2149

  Lengths:   7.467048   7.467048  24.064546
  Angles:   90.000000  90.000000  60.000000

Effective grid spacing dv^(1/3) = 0.2038

     iter     time        total  log10-change:
                         energy   eigst   dens
iter:   1 11:44:06  -193.695942
iter:   2 11:44:31  -191.218767   -0.36  -1.54
iter:   3 11:44:52  -195.963987   -0.82  -1.64
iter:   4 11:45:13  -208.283781   -1.07  -1.74
iter:   5 11:45:37  -190.928386   -1.46  -1.67
iter:   6 11:45:55  -189.345595   -2.02  -1.84
iter:   7 11:46:14  -191.487157   -1.58  -1.94
iter:   8 11:46:31  -190.497382   -1.94  -2.04
iter:   9 11:46:48  -189.335653   -2.34  -2.08
iter:  10 11:47:09  -188.829705   -2.46  -2.18
iter:  11 11:47:28  -188.375329   -2.93  -2.19
iter:  12 11:47:48  -188.229076   -3.08  -2.29
iter:  13 11:48:08  -188.284379c  -2.91  -2.44
iter:  14 11:48:27  -188.250502c  -3.29  -2.63
iter:  15 11:48:47  -188.431621c  -3.28  -2.69
iter:  16 11:49:07  -188.281532c  -4.27  -2.49
iter:  17 11:49:26  -188.193380   -3.75  -2.60
iter:  18 11:49:45  -188.166732c  -3.84  -2.74
iter:  19 11:50:04  -188.165539c  -3.97  -2.81
iter:  20 11:50:26  -188.137876c  -4.10  -2.89
iter:  21 11:50:48  -188.215086c  -3.69  -2.96
iter:  22 11:51:07  -188.108130c  -4.55  -2.80
iter:  23 11:51:24  -188.113261c  -4.86  -3.22
iter:  24 11:51:36  -188.107994c  -5.06  -3.21
iter:  25 11:51:49  -188.105245c  -5.26  -3.33
iter:  26 11:52:01  -188.105250c  -5.09  -3.44
iter:  27 11:52:13  -188.104808c  -5.59  -3.57
iter:  28 11:52:26  -188.104122c  -6.05  -3.69
iter:  29 11:52:38  -188.104893c  -6.38  -3.81
iter:  30 11:52:50  -188.106060c  -5.72  -3.85
iter:  31 11:53:02  -188.105321c  -6.49  -3.76
iter:  32 11:53:14  -188.105270c  -6.56  -3.98
iter:  33 11:53:26  -188.105136c  -7.11  -4.05c
iter:  34 11:53:38  -188.104888c  -6.74  -4.19c
iter:  35 11:53:50  -188.104727c  -6.80  -4.32c
iter:  36 11:54:02  -188.104828c  -6.82  -4.27c
iter:  37 11:54:14  -188.104518c  -7.03  -4.41c
iter:  38 11:54:26  -188.104381c  -7.18  -4.46c
iter:  39 11:54:38  -188.104451c  -7.09  -4.55c
iter:  40 11:54:50  -188.104316c  -7.49c -4.36c

Converged after 40 iterations.

Dipole moment: (-0.501241, -0.156002, 0.163902) |e|*Ang

Energy contributions relative to reference atoms: (reference = -1116960.938401)

Kinetic:       +166.899757
Potential:     -122.331653
External:        +0.000000
XC:            -234.806696
Entropy (-ST):   -2.692605
Local:           +3.480578
SIC:             +0.000000
--------------------------
Free energy:   -189.450618
Extrapolated:  -188.104316

Showing all kpts
 Kpt  Band  Eigenvalues  Occupancy
  0   215     -1.60442    1.31801
  0   216     -1.56893    1.15083
  0   217     -1.56142    1.11396
  0   218     -1.55126    1.06357

  1   215     -1.58528    1.22960
  1   216     -1.57074    1.15968
  1   217     -1.56453    1.12929
  1   218     -1.56176    1.11561


Fermi level: -1.53853

No gap
No difference between direct/indirect transitions
Timing:                              incl.     excl.
-----------------------------------------------------------
Hamiltonian:                         1.404     0.003   0.0% |
 Atomic:                             0.713     0.002   0.0% |
  XC Correction:                     0.711     0.711   0.1% |
 Calculate atomic Hamiltonians:      0.268     0.268   0.0% |
 Communicate:                        0.000     0.000   0.0% |
 Initialize Hamiltonian:             0.001     0.001   0.0% |
 Poisson:                            0.004     0.004   0.0% |
 XC 3D grid:                         0.416     0.416   0.1% |
LCAO initialization:                54.121     0.053   0.0% |
 LCAO eigensolver:                   5.564     0.001   0.0% |
  Calculate projections:             0.070     0.070   0.0% |
  DenseAtomicCorrection:             0.161     0.161   0.0% |
  Distribute overlap matrix:         0.001     0.001   0.0% |
  Orbital Layouts:                   2.202     2.202   0.3% |
  Potential matrix:                  3.113     3.113   0.4% |
  Sum over cells:                    0.016     0.016   0.0% |
 LCAO to grid:                      47.461    47.461   6.6% |--|
 Set positions (LCAO WFS):           1.043     0.352   0.0% |
  Basic WFS set positions:           0.001     0.001   0.0% |
  Basis functions set positions:     0.000     0.000   0.0% |
  P tci:                             0.452     0.452   0.1% |
  ST tci:                            0.219     0.219   0.0% |
  mktci:                             0.018     0.018   0.0% |
PWDescriptor:                        0.014     0.014   0.0% |
SCF-cycle:                         665.184     0.051   0.0% |
 Davidson:                         566.887    90.291  12.5% |----|
  Apply H:                          60.640    58.807   8.1% |--|
   HMM T:                            1.833     1.833   0.3% |
  Subspace diag:                    93.709     0.010   0.0% |
   calc_h_matrix:                   70.578    10.921   1.5% ||
    Apply H:                        59.657    57.829   8.0% |--|
     HMM T:                          1.828     1.828   0.3% |
   diagonalize:                     11.470    11.470   1.6% ||
   rotate_psi:                      11.651    11.651   1.6% ||
  calc. matrices:                  187.545    66.481   9.2% |---|
   Apply H:                        121.064   117.400  16.3% |------|
    HMM T:                           3.664     3.664   0.5% |
  diagonalize:                     112.644   112.644  15.6% |-----|
  rotate_psi:                       22.058    22.058   3.1% ||
 Density:                           44.793     0.001   0.0% |
  Atomic density matrices:           0.187     0.187   0.0% |
  Mix:                              15.716    15.716   2.2% ||
  Multipole moments:                 0.013     0.013   0.0% |
  Pseudo density:                   28.877    28.631   4.0% |-|
   Symmetrize density:               0.246     0.246   0.0% |
 Hamiltonian:                       51.867     0.100   0.0% |
  Atomic:                           24.459     0.069   0.0% |
   XC Correction:                   24.389    24.389   3.4% ||
  Calculate atomic Hamiltonians:    11.583    11.583   1.6% ||
  Communicate:                       0.000     0.000   0.0% |
  Poisson:                           0.141     0.141   0.0% |
  XC 3D grid:                       15.584    15.584   2.2% ||
 Orthonormalize:                     1.586     0.000   0.0% |
  calc_s_matrix:                     0.453     0.453   0.1% |
  inverse-cholesky:                  0.367     0.367   0.1% |
  projections:                       0.517     0.517   0.1% |
  rotate_psi_s:                      0.248     0.248   0.0% |
Set symmetry:                        0.001     0.001   0.0% |
Other:                               1.283     1.283   0.2% |
-----------------------------------------------------------
Total:                                       722.006 100.0%

Memory usage: 1.06 GiB
Date: Sat Mar 29 11:54:50 2025
