
  ___ ___ ___ _ _ _  
 |   |   |_  | | | | 
 | | | | | . | | | | 
 |__ |  _|___|_____|  24.6.0
 |___|_|             

User:   kerem@DESKTOP-CMKTO4T
Date:   Sat Mar 29 12:33:56 2025
Arch:   x86_64
Pid:    640
CWD:    /home/kerem
Python: 3.12.9
gpaw:   /home/kerem/miniconda3/envs/gpaw-env/lib/python3.12/site-packages/gpaw
_gpaw:  /home/kerem/miniconda3/envs/gpaw-env/lib/python3.12/site-packages/
        _gpaw.cpython-312-x86_64-linux-gnu.so
ase:    /home/kerem/miniconda3/envs/gpaw-env/lib/python3.12/site-packages/ase (version 3.24.0)
numpy:  /home/kerem/miniconda3/envs/gpaw-env/lib/python3.12/site-packages/numpy (version 1.26.4)
scipy:  /home/kerem/miniconda3/envs/gpaw-env/lib/python3.12/site-packages/scipy (version 1.15.2)
libxc:  6.2.2
units:  Angstrom and eV
cores: 1
OpenMP: True
OMP_NUM_THREADS: 1

Input parameters:
  kpts: [2 2 1]
  mode: {ecut: 400.0,
         name: pw}
  xc: PBE

System changes: positions, numbers, cell, pbc, initial_charges, initial_magmoms 

Initialize ...

species:
  Ni:
    name: Nickel
    id: 0d9f38a9d6e76a2886f07bb4381f212b
    Z: 28.0
    valence: 16
    core: 12
    charge: 0.0
    file: /home/kerem/miniconda3/envs/gpaw-env/share/gpaw/Ni.PBE.gz
    compensation charges: {type: gauss,
                           rc: 0.36,
                           lmax: 2}
    cutoffs: {filter: 2.14,
              core: 1.98}
    projectors:
      #              energy  rcut
      - 4s(2.00)    -5.642   1.164
      - 3p(6.00)   -71.394   1.207
      - 4p(0.00)    -1.226   1.207
      - 3d(8.00)    -8.875   1.138
      -  s          21.570   1.164
      -  d          18.337   1.138
  
    # Using partial waves for Ni as LCAO basis

  H:
    name: Hydrogen
    id: d65de229564ff8ea4db303e23b6d1ecf
    Z: 1.0
    valence: 1
    core: 0
    charge: 0.0
    file: /home/kerem/miniconda3/envs/gpaw-env/share/gpaw/H.PBE.gz
    compensation charges: {type: gauss,
                           rc: 0.15,
                           lmax: 2}
    cutoffs: {filter: 0.85,
              core: 0.53}
    projectors:
      #              energy  rcut
      - 1s(1.00)    -6.494   0.476
      -  s          20.717   0.476
      -  p           0.000   0.476
  
    # Using partial waves for H as LCAO basis

Reference energy: -1116960.938401  # eV

Spin-paired calculation

Convergence criteria:
 Maximum [total energy] change in last 3 cyles: 0.0005 eV / valence electron
 Maximum integral of absolute [dens]ity change: 0.0001 electrons / valence electron
 Maximum integral of absolute [eigenst]ate change: 4e-08 eV^2 / valence electron
 Maximum number of scf [iter]ations: 333
 (Square brackets indicate name in SCF output, whereas a 'c' in
 the SCF output indicates the quantity has converged.)

Symmetries present (total): 2

  ( 1  0  0)  (-1  0  0)
  ( 0  1  0)  (-1  1  0)
  ( 0  0  1)  ( 0  0  1)
Note: your k-points are not as symmetric as your crystal!

4 k-points: 2 x 2 x 1 Monkhorst-Pack grid
2 k-points in the irreducible part of the Brillouin zone
       k-points in crystal coordinates                weights
   0:     0.25000000   -0.25000000    0.00000000          2/4
   1:     0.25000000    0.25000000    0.00000000          2/4

Wave functions: Plane wave expansion
  Cutoff energy: 400.000 eV
  Number of coefficients (min, max): 21105, 21124
  Pulay-stress correction: 0.000000 eV/Ang^3 (de/decut=0.000000)
  Using FFTW library
  ScaLapack parameters: grid=1x1, blocksize=None
  Wavefunction extrapolation:
    Improved wavefunction reuse through dual PAW basis 

Occupation numbers: Fermi-Dirac:
  width: 0.1000  # eV
 

Eigensolver
   Davidson(niter=2) 

Densities:
  Coarse grid: 35*35*112 grid
  Fine grid: 70*70*224 grid
  Total Charge: 0.000000 

Density mixing:
  Method: separate
  Backend: pulay
  Linear mixing parameter: 0.05
  old densities: 5
  Damping of long wavelength oscillations: 50 

Hamiltonian:
  XC and Coulomb potentials evaluated on a 70*70*224 grid
  Using the PBE Exchange-Correlation functional
  External potential:
    NoExternalPotential
 

XC parameters: PBE with 2 nearest neighbor stencil

Memory estimate:
  Process memory now: 1092.93 MiB
  Calculator: 368.46 MiB
    Density: 65.71 MiB
      Arrays: 27.22 MiB
      Localized functions: 28.02 MiB
      Mixer: 10.47 MiB
    Hamiltonian: 18.48 MiB
      Arrays: 17.79 MiB
      XC: 0.00 MiB
      Poisson: 0.00 MiB
      vbar: 0.68 MiB
    Wavefunctions: 284.27 MiB
      Arrays psit_nG: 170.83 MiB
      Eigensolver: 97.75 MiB
      Projections: 4.01 MiB
      Projectors: 5.80 MiB
      PW-descriptor: 5.88 MiB

Total number of cores used: 1

Number of atoms: 29
Number of atomic orbitals: 326
Number of bands in calculation: 265
Number of valence electrons: 434
Bands to converge: occupied

... initialized

Initializing position-dependent things.

Density initialized from atomic densities
Creating initial wave functions:
  265 bands from LCAO basis set

                                         
                                         
                                         
                                         
                                         
                  H                      
                  H                      
                                         
                Ni    Ni    Ni           
           Ni    NNi   NNi   Ni          
       Ni    Ni    Ni                    
            Ni    Ni    Ni               
        Ni    Ni   NNi   Ni    Ni        
                                         
               Ni    Ni    Ni            
           Ni    Ni    Ni                
                                         
                                         
                                         
                                         

Positions:
   0 Ni     1.244508    0.718517   10.000000    ( 0.0000,  0.0000,  0.0000)
   1 Ni     3.733524    0.718517   10.000000    ( 0.0000,  0.0000,  0.0000)
   2 Ni     6.222540    0.718517   10.000000    ( 0.0000,  0.0000,  0.0000)
   3 Ni     2.489016    2.874068   10.000000    ( 0.0000,  0.0000,  0.0000)
   4 Ni     4.978032    2.874068   10.000000    ( 0.0000,  0.0000,  0.0000)
   5 Ni     7.467048    2.874068   10.000000    ( 0.0000,  0.0000,  0.0000)
   6 Ni     3.733524    5.029619   10.000000    ( 0.0000,  0.0000,  0.0000)
   7 Ni     6.222540    5.029619   10.000000    ( 0.0000,  0.0000,  0.0000)
   8 Ni     8.711556    5.029619   10.000000    ( 0.0000,  0.0000,  0.0000)
   9 Ni     0.000000    1.437034   12.032273    ( 0.0000,  0.0000,  0.0000)
  10 Ni     2.489016    1.437034   12.032273    ( 0.0000,  0.0000,  0.0000)
  11 Ni     4.978032    1.437034   12.032273    ( 0.0000,  0.0000,  0.0000)
  12 Ni     1.244508    3.592585   12.032273    ( 0.0000,  0.0000,  0.0000)
  13 Ni     3.733524    3.592585   12.032273    ( 0.0000,  0.0000,  0.0000)
  14 Ni     6.222540    3.592585   12.032273    ( 0.0000,  0.0000,  0.0000)
  15 Ni     2.489016    5.748136   12.032273    ( 0.0000,  0.0000,  0.0000)
  16 Ni     4.978032    5.748136   12.032273    ( 0.0000,  0.0000,  0.0000)
  17 Ni     7.467048    5.748136   12.032273    ( 0.0000,  0.0000,  0.0000)
  18 Ni     0.000000    0.000000   14.064546    ( 0.0000,  0.0000,  0.0000)
  19 Ni     2.489016    0.000000   14.064546    ( 0.0000,  0.0000,  0.0000)
  20 Ni     4.978032    0.000000   14.064546    ( 0.0000,  0.0000,  0.0000)
  21 Ni     1.244508    2.155551   14.064546    ( 0.0000,  0.0000,  0.0000)
  22 Ni     3.733524    2.155551   14.064546    ( 0.0000,  0.0000,  0.0000)
  23 Ni     6.222540    2.155551   14.064546    ( 0.0000,  0.0000,  0.0000)
  24 Ni     2.489016    4.311102   14.064546    ( 0.0000,  0.0000,  0.0000)
  25 Ni     4.978032    4.311102   14.064546    ( 0.0000,  0.0000,  0.0000)
  26 Ni     7.467048    4.311102   14.064546    ( 0.0000,  0.0000,  0.0000)
  27 H      3.733524    3.233326   15.764546    ( 0.0000,  0.0000,  0.0000)
  28 H      3.733524    3.233326   16.504546    ( 0.0000,  0.0000,  0.0000)

Unit cell:
           periodic     x           y           z      points  spacing
  1. axis:    yes    7.467048    0.000000    0.000000    35     0.1848
  2. axis:    yes    3.733524    6.466653    0.000000    35     0.1848
  3. axis:    no     0.000000    0.000000   24.064546   112     0.2149

  Lengths:   7.467048   7.467048  24.064546
  Angles:   90.000000  90.000000  60.000000

Effective grid spacing dv^(1/3) = 0.2038

     iter     time        total  log10-change:
                         energy   eigst   dens
iter:   1 12:34:46  -193.971684
iter:   2 12:34:58  -191.551507   -0.36  -1.54
iter:   3 12:35:10  -193.500948   -0.82  -1.63
iter:   4 12:35:22  -213.238630   -1.02  -1.74
iter:   5 12:35:35  -192.398107   -1.49  -1.62
iter:   6 12:35:47  -189.302943   -1.97  -1.83
iter:   7 12:36:01  -190.996165   -1.61  -1.94
iter:   8 12:36:13  -189.314699   -2.27  -2.03
iter:   9 12:36:25  -188.899796   -2.72  -2.15
iter:  10 12:36:37  -190.117838   -2.37  -2.21
iter:  11 12:36:49  -188.592714   -2.91  -2.17
iter:  12 12:37:01  -188.628228   -2.79  -2.38
iter:  13 12:37:13  -188.699111c  -3.19  -2.58
iter:  14 12:37:25  -188.600587c  -3.16  -2.58
iter:  15 12:37:37  -188.473540   -4.16  -2.59
iter:  16 12:37:48  -188.710314   -3.55  -2.73
iter:  17 12:38:00  -188.465263   -3.82  -2.58
iter:  18 12:38:12  -188.435020   -4.21  -2.84
iter:  19 12:38:24  -188.431554c  -4.41  -3.06
iter:  20 12:38:36  -188.429805c  -4.77  -3.18
iter:  21 12:38:48  -188.432242c  -4.68  -3.25
iter:  22 12:39:00  -188.428718c  -4.80  -3.31
iter:  23 12:39:12  -188.428825c  -5.20  -3.46
iter:  24 12:39:24  -188.429710c  -5.26  -3.47
iter:  25 12:39:36  -188.428410c  -5.31  -3.44
iter:  26 12:39:48  -188.427951c  -5.44  -3.54
iter:  27 12:40:00  -188.427794c  -5.50  -3.68
iter:  28 12:40:12  -188.428215c  -5.44  -3.85
iter:  29 12:40:24  -188.427570c  -5.87  -3.77
iter:  30 12:40:36  -188.427736c  -6.29  -4.03c
iter:  31 12:40:48  -188.427623c  -6.51  -4.06c
iter:  32 12:41:00  -188.427603c  -6.95  -4.16c
iter:  33 12:41:12  -188.427922c  -6.71  -4.23c
iter:  34 12:41:24  -188.427581c  -6.82  -4.07c
iter:  35 12:41:36  -188.427598c  -7.32  -4.29c
iter:  36 12:41:48  -188.427580c  -7.45c -4.34c

Converged after 36 iterations.

Dipole moment: (-0.389640, -0.154627, 0.126793) |e|*Ang

Energy contributions relative to reference atoms: (reference = -1116960.938401)

Kinetic:       +161.858784
Potential:     -118.808817
External:        +0.000000
XC:            -233.574933
Entropy (-ST):   -2.718724
Local:           +3.456750
SIC:             +0.000000
--------------------------
Free energy:   -189.786942
Extrapolated:  -188.427580

Showing all kpts
 Kpt  Band  Eigenvalues  Occupancy
  0   215     -1.64344    1.31744
  0   216     -1.64163    1.30926
  0   217     -1.59920    1.10717
  0   218     -1.59676    1.09510

  1   215     -1.61725    1.19531
  1   216     -1.60543    1.13787
  1   217     -1.60090    1.11558
  1   218     -1.59876    1.10503


Fermi level: -1.57768

No gap
No difference between direct/indirect transitions
Timing:                              incl.     excl.
-----------------------------------------------------------
Hamiltonian:                         1.248     0.003   0.0% |
 Atomic:                             0.620     0.002   0.0% |
  XC Correction:                     0.619     0.619   0.1% |
 Calculate atomic Hamiltonians:      0.292     0.292   0.1% |
 Communicate:                        0.000     0.000   0.0% |
 Initialize Hamiltonian:             0.001     0.001   0.0% |
 Poisson:                            0.004     0.004   0.0% |
 XC 3D grid:                         0.327     0.327   0.1% |
LCAO initialization:                37.632     0.038   0.0% |
 LCAO eigensolver:                   3.129     0.001   0.0% |
  Calculate projections:             0.005     0.005   0.0% |
  DenseAtomicCorrection:             0.008     0.008   0.0% |
  Distribute overlap matrix:         0.001     0.001   0.0% |
  Orbital Layouts:                   0.066     0.066   0.0% |
  Potential matrix:                  3.039     3.039   0.6% |
  Sum over cells:                    0.009     0.009   0.0% |
 LCAO to grid:                      33.658    33.658   7.1% |--|
 Set positions (LCAO WFS):           0.807     0.140   0.0% |
  Basic WFS set positions:           0.001     0.001   0.0% |
  Basis functions set positions:     0.000     0.000   0.0% |
  P tci:                             0.465     0.465   0.1% |
  ST tci:                            0.188     0.188   0.0% |
  mktci:                             0.013     0.013   0.0% |
PWDescriptor:                        0.012     0.012   0.0% |
SCF-cycle:                         432.232     0.047   0.0% |
 Davidson:                         348.061    55.590  11.8% |----|
  Apply H:                          52.134    50.421  10.7% |---|
   HMM T:                            1.713     1.713   0.4% |
  Subspace diag:                    71.185     0.010   0.0% |
   calc_h_matrix:                   60.042     8.907   1.9% ||
    Apply H:                        51.135    49.422  10.5% |---|
     HMM T:                          1.713     1.713   0.4% |
   diagonalize:                      1.911     1.911   0.4% |
   rotate_psi:                       9.221     9.221   2.0% ||
  calc. matrices:                  140.639    36.698   7.8% |--|
   Apply H:                        103.941   100.507  21.3% |--------|
    HMM T:                           3.434     3.434   0.7% |
  diagonalize:                      11.840    11.840   2.5% ||
  rotate_psi:                       16.674    16.674   3.5% ||
 Density:                           37.601     0.001   0.0% |
  Atomic density matrices:           0.175     0.175   0.0% |
  Mix:                              13.103    13.103   2.8% ||
  Multipole moments:                 0.011     0.011   0.0% |
  Pseudo density:                   24.311    24.094   5.1% |-|
   Symmetrize density:               0.217     0.217   0.0% |
 Hamiltonian:                       45.915     0.090   0.0% |
  Atomic:                           21.261     0.061   0.0% |
   XC Correction:                   21.199    21.199   4.5% |-|
  Calculate atomic Hamiltonians:    10.358    10.358   2.2% ||
  Communicate:                       0.000     0.000   0.0% |
  Poisson:                           0.124     0.124   0.0% |
  XC 3D grid:                       14.082    14.082   3.0% ||
 Orthonormalize:                     0.608     0.000   0.0% |
  calc_s_matrix:                     0.066     0.066   0.0% |
  inverse-cholesky:                  0.008     0.008   0.0% |
  projections:                       0.289     0.289   0.1% |
  rotate_psi_s:                      0.245     0.245   0.1% |
Set symmetry:                        0.001     0.001   0.0% |
Other:                               1.345     1.345   0.3% |
-----------------------------------------------------------
Total:                                       472.469 100.0%

Memory usage: 1.07 GiB
Date: Sat Mar 29 12:41:48 2025
