
  ___ ___ ___ _ _ _  
 |   |   |_  | | | | 
 | | | | | . | | | | 
 |__ |  _|___|_____|  24.6.0
 |___|_|             

User:   kerem@DESKTOP-CMKTO4T
Date:   Sun Mar 30 12:59:44 2025
Arch:   x86_64
Pid:    4990
CWD:    /home/kerem
Python: 3.12.9
gpaw:   /home/kerem/miniconda3/envs/gpaw-env/lib/python3.12/site-packages/gpaw
_gpaw:  /home/kerem/miniconda3/envs/gpaw-env/lib/python3.12/site-packages/
        _gpaw.cpython-312-x86_64-linux-gnu.so
ase:    /home/kerem/miniconda3/envs/gpaw-env/lib/python3.12/site-packages/ase (version 3.24.0)
numpy:  /home/kerem/miniconda3/envs/gpaw-env/lib/python3.12/site-packages/numpy (version 1.26.4)
scipy:  /home/kerem/miniconda3/envs/gpaw-env/lib/python3.12/site-packages/scipy (version 1.15.2)
libxc:  6.2.2
units:  Angstrom and eV
cores: 1
OpenMP: True
OMP_NUM_THREADS: 1

Input parameters:
  kpts: [2 2 1]
  mode: {ecut: 400.0,
         name: pw}
  xc: PBE

System changes: positions, numbers, cell, pbc, initial_charges, initial_magmoms 

Initialize ...

species:
  Ni:
    name: Nickel
    id: 0d9f38a9d6e76a2886f07bb4381f212b
    Z: 28.0
    valence: 16
    core: 12
    charge: 0.0
    file: /home/kerem/miniconda3/envs/gpaw-env/share/gpaw/Ni.PBE.gz
    compensation charges: {type: gauss,
                           rc: 0.36,
                           lmax: 2}
    cutoffs: {filter: 2.14,
              core: 1.98}
    projectors:
      #              energy  rcut
      - 4s(2.00)    -5.642   1.164
      - 3p(6.00)   -71.394   1.207
      - 4p(0.00)    -1.226   1.207
      - 3d(8.00)    -8.875   1.138
      -  s          21.570   1.164
      -  d          18.337   1.138
  
    # Using partial waves for Ni as LCAO basis

  H:
    name: Hydrogen
    id: d65de229564ff8ea4db303e23b6d1ecf
    Z: 1.0
    valence: 1
    core: 0
    charge: 0.0
    file: /home/kerem/miniconda3/envs/gpaw-env/share/gpaw/H.PBE.gz
    compensation charges: {type: gauss,
                           rc: 0.15,
                           lmax: 2}
    cutoffs: {filter: 0.85,
              core: 0.53}
    projectors:
      #              energy  rcut
      - 1s(1.00)    -6.494   0.476
      -  s          20.717   0.476
      -  p           0.000   0.476
  
    # Using partial waves for H as LCAO basis

Reference energy: -1116960.938401  # eV

Spin-paired calculation

Convergence criteria:
 Maximum [total energy] change in last 3 cyles: 0.0005 eV / valence electron
 Maximum integral of absolute [dens]ity change: 0.0001 electrons / valence electron
 Maximum integral of absolute [eigenst]ate change: 4e-08 eV^2 / valence electron
 Maximum number of scf [iter]ations: 333
 (Square brackets indicate name in SCF output, whereas a 'c' in
 the SCF output indicates the quantity has converged.)

Symmetries present (total): 2

  ( 1  0  0)  (-1  0  0)
  ( 0  1  0)  (-1  1  0)
  ( 0  0  1)  ( 0  0  1)
Note: your k-points are not as symmetric as your crystal!

4 k-points: 2 x 2 x 1 Monkhorst-Pack grid
2 k-points in the irreducible part of the Brillouin zone
       k-points in crystal coordinates                weights
   0:     0.25000000   -0.25000000    0.00000000          2/4
   1:     0.25000000    0.25000000    0.00000000          2/4

Wave functions: Plane wave expansion
  Cutoff energy: 400.000 eV
  Number of coefficients (min, max): 21105, 21124
  Pulay-stress correction: 0.000000 eV/Ang^3 (de/decut=0.000000)
  Using FFTW library
  ScaLapack parameters: grid=1x1, blocksize=None
  Wavefunction extrapolation:
    Improved wavefunction reuse through dual PAW basis 

Occupation numbers: Fermi-Dirac:
  width: 0.1000  # eV
 

Eigensolver
   Davidson(niter=2) 

Densities:
  Coarse grid: 35*35*112 grid
  Fine grid: 70*70*224 grid
  Total Charge: 0.000000 

Density mixing:
  Method: separate
  Backend: pulay
  Linear mixing parameter: 0.05
  old densities: 5
  Damping of long wavelength oscillations: 50 

Hamiltonian:
  XC and Coulomb potentials evaluated on a 70*70*224 grid
  Using the PBE Exchange-Correlation functional
  External potential:
    NoExternalPotential
 

XC parameters: PBE with 2 nearest neighbor stencil

Memory estimate:
  Process memory now: 274.49 MiB
  Calculator: 368.46 MiB
    Density: 65.71 MiB
      Arrays: 27.22 MiB
      Localized functions: 28.02 MiB
      Mixer: 10.47 MiB
    Hamiltonian: 18.48 MiB
      Arrays: 17.79 MiB
      XC: 0.00 MiB
      Poisson: 0.00 MiB
      vbar: 0.68 MiB
    Wavefunctions: 284.27 MiB
      Arrays psit_nG: 170.83 MiB
      Eigensolver: 97.75 MiB
      Projections: 4.01 MiB
      Projectors: 5.80 MiB
      PW-descriptor: 5.88 MiB

Total number of cores used: 1

Number of atoms: 29
Number of atomic orbitals: 326
Number of bands in calculation: 265
Number of valence electrons: 434
Bands to converge: occupied

... initialized

Initializing position-dependent things.

Density initialized from atomic densities
Creating initial wave functions:
  265 bands from LCAO basis set

                                         
                                         
                                         
                                         
                                         
                 H H                     
                Ni    Ni    Ni           
           Ni    NNi   NNi   Ni          
       Ni    Ni    Ni                    
            Ni    Ni    Ni               
        Ni    Ni   NNi   Ni    Ni        
                                         
               Ni    Ni    Ni            
           Ni    Ni    Ni                
                                         
                                         
                                         
                                         

Positions:
   0 Ni     1.244508    0.718517   10.000000    ( 0.0000,  0.0000,  0.0000)
   1 Ni     3.733524    0.718517   10.000000    ( 0.0000,  0.0000,  0.0000)
   2 Ni     6.222540    0.718517   10.000000    ( 0.0000,  0.0000,  0.0000)
   3 Ni     2.489016    2.874068   10.000000    ( 0.0000,  0.0000,  0.0000)
   4 Ni     4.978032    2.874068   10.000000    ( 0.0000,  0.0000,  0.0000)
   5 Ni     7.467048    2.874068   10.000000    ( 0.0000,  0.0000,  0.0000)
   6 Ni     3.733524    5.029619   10.000000    ( 0.0000,  0.0000,  0.0000)
   7 Ni     6.222540    5.029619   10.000000    ( 0.0000,  0.0000,  0.0000)
   8 Ni     8.711556    5.029619   10.000000    ( 0.0000,  0.0000,  0.0000)
   9 Ni     0.000000    1.437034   12.032273    ( 0.0000,  0.0000,  0.0000)
  10 Ni     2.489016    1.437034   12.032273    ( 0.0000,  0.0000,  0.0000)
  11 Ni     4.978032    1.437034   12.032273    ( 0.0000,  0.0000,  0.0000)
  12 Ni     1.244508    3.592585   12.032273    ( 0.0000,  0.0000,  0.0000)
  13 Ni     3.733524    3.592585   12.032273    ( 0.0000,  0.0000,  0.0000)
  14 Ni     6.222540    3.592585   12.032273    ( 0.0000,  0.0000,  0.0000)
  15 Ni     2.489016    5.748136   12.032273    ( 0.0000,  0.0000,  0.0000)
  16 Ni     4.978032    5.748136   12.032273    ( 0.0000,  0.0000,  0.0000)
  17 Ni     7.467048    5.748136   12.032273    ( 0.0000,  0.0000,  0.0000)
  18 Ni     0.000000    0.000000   14.064546    ( 0.0000,  0.0000,  0.0000)
  19 Ni     2.489016    0.000000   14.064546    ( 0.0000,  0.0000,  0.0000)
  20 Ni     4.978032    0.000000   14.064546    ( 0.0000,  0.0000,  0.0000)
  21 Ni     1.244508    2.155551   14.064546    ( 0.0000,  0.0000,  0.0000)
  22 Ni     3.733524    2.155551   14.064546    ( 0.0000,  0.0000,  0.0000)
  23 Ni     6.222540    2.155551   14.064546    ( 0.0000,  0.0000,  0.0000)
  24 Ni     2.489016    4.311102   14.064546    ( 0.0000,  0.0000,  0.0000)
  25 Ni     4.978032    4.311102   14.064546    ( 0.0000,  0.0000,  0.0000)
  26 Ni     7.467048    4.311102   14.064546    ( 0.0000,  0.0000,  0.0000)
  27 H      3.233524    3.233326   15.064546    ( 0.0000,  0.0000,  0.0000)
  28 H      4.233524    3.233326   15.064546    ( 0.0000,  0.0000,  0.0000)

Unit cell:
           periodic     x           y           z      points  spacing
  1. axis:    yes    7.467048    0.000000    0.000000    35     0.1848
  2. axis:    yes    3.733524    6.466653    0.000000    35     0.1848
  3. axis:    no     0.000000    0.000000   24.064546   112     0.2149

  Lengths:   7.467048   7.467048  24.064546
  Angles:   90.000000  90.000000  60.000000

Effective grid spacing dv^(1/3) = 0.2038

     iter     time        total  log10-change:
                         energy   eigst   dens
iter:   1 13:01:01  -193.884973
iter:   2 13:01:22  -191.670188   -0.35  -1.55
iter:   3 13:01:34  -198.874893   -0.82  -1.65
iter:   4 13:01:51  -203.766077   -1.11  -1.73
iter:   5 13:02:03  -190.542661   -1.49  -1.71
iter:   6 13:02:17  -190.187615   -2.02  -1.86
iter:   7 13:02:35  -192.092439   -1.67  -1.94
iter:   8 13:02:48  -190.503204   -1.96  -2.05
iter:   9 13:03:21  -189.146594   -2.51  -2.14
iter:  10 13:03:42  -189.064437   -2.82  -2.21
iter:  11 13:03:55  -189.031604c  -3.08  -2.26
iter:  12 13:04:10  -189.322941   -2.62  -2.30
iter:  13 13:04:23  -188.973790   -3.14  -2.51
iter:  14 13:04:47  -188.902259   -3.49  -2.64
iter:  15 13:05:04  -188.847735c  -4.05  -2.68
iter:  16 13:05:16  -188.860062c  -4.14  -2.78
iter:  17 13:05:31  -188.835841c  -4.13  -2.81
iter:  18 13:05:44  -188.832097c  -4.16  -2.89
iter:  19 13:05:59  -188.840052c  -4.39  -3.02
iter:  20 13:06:11  -188.830471c  -4.36  -3.00
iter:  21 13:06:23  -188.848626c  -4.34  -3.09
iter:  22 13:06:37  -188.849002c  -4.28  -3.03
iter:  23 13:06:49  -188.839142c  -4.78  -3.07
iter:  24 13:07:00  -188.838867c  -4.76  -3.11
iter:  25 13:07:15  -188.848717c  -4.21  -3.20
iter:  26 13:07:27  -188.834406c  -4.63  -3.22
iter:  27 13:07:40  -188.832455c  -5.32  -3.37
iter:  28 13:07:55  -188.831619c  -5.32  -3.47
iter:  29 13:08:07  -188.833003c  -5.14  -3.62
iter:  30 13:08:22  -188.830842c  -5.66  -3.59
iter:  31 13:08:34  -188.831064c  -5.50  -3.78
iter:  32 13:08:45  -188.830919c  -5.62  -3.74
iter:  33 13:09:00  -188.831734c  -5.60  -3.84
iter:  34 13:09:12  -188.829841c  -5.90  -3.77
iter:  35 13:09:23  -188.830023c  -6.14  -4.00
iter:  36 13:09:38  -188.829872c  -6.42  -4.09c
iter:  37 13:09:50  -188.830354c  -6.05  -4.03c
iter:  38 13:10:02  -188.829696c  -6.43  -4.02c
iter:  39 13:10:17  -188.829616c  -6.76  -4.21c
iter:  40 13:10:28  -188.830100c  -6.19  -4.26c
iter:  41 13:10:44  -188.829575c  -6.62  -4.26c
iter:  42 13:10:55  -188.829602c  -7.17  -4.60c
iter:  43 13:11:07  -188.829556c  -7.34  -4.50c
iter:  44 13:11:22  -188.829594c  -7.62c -4.72c

Converged after 44 iterations.

Dipole moment: (-0.460095, -0.151668, 0.065697) |e|*Ang

Energy contributions relative to reference atoms: (reference = -1116960.938401)

Kinetic:       +167.205350
Potential:     -122.533053
External:        +0.000000
XC:            -235.651354
Entropy (-ST):   -2.608893
Local:           +3.453909
SIC:             +0.000000
--------------------------
Free energy:   -190.134041
Extrapolated:  -188.829594

Showing all kpts
 Kpt  Band  Eigenvalues  Occupancy
  0   215     -1.70333    1.34193
  0   216     -1.66617    1.16888
  0   217     -1.65735    1.12571
  0   218     -1.63393    1.00931

  1   215     -1.69094    1.28613
  1   216     -1.67793    1.22533
  1   217     -1.66245    1.15076
  1   218     -1.65913    1.13445


Fermi level: -1.63207

No gap
No difference between direct/indirect transitions
Timing:                              incl.     excl.
-----------------------------------------------------------
Hamiltonian:                         1.216     0.002   0.0% |
 Atomic:                             0.559     0.002   0.0% |
  XC Correction:                     0.557     0.557   0.1% |
 Calculate atomic Hamiltonians:      0.280     0.280   0.0% |
 Communicate:                        0.000     0.000   0.0% |
 Initialize Hamiltonian:             0.000     0.000   0.0% |
 Poisson:                            0.004     0.004   0.0% |
 XC 3D grid:                         0.370     0.370   0.1% |
LCAO initialization:                48.819     0.033   0.0% |
 LCAO eigensolver:                   2.881     0.001   0.0% |
  Calculate projections:             0.005     0.005   0.0% |
  DenseAtomicCorrection:             0.007     0.007   0.0% |
  Distribute overlap matrix:         0.001     0.001   0.0% |
  Orbital Layouts:                   0.069     0.069   0.0% |
  Potential matrix:                  2.780     2.780   0.4% |
  Sum over cells:                    0.019     0.019   0.0% |
 LCAO to grid:                      45.176    45.176   6.5% |--|
 Set positions (LCAO WFS):           0.729     0.140   0.0% |
  Basic WFS set positions:           0.001     0.001   0.0% |
  Basis functions set positions:     0.000     0.000   0.0% |
  P tci:                             0.409     0.409   0.1% |
  ST tci:                            0.160     0.160   0.0% |
  mktci:                             0.019     0.019   0.0% |
PWDescriptor:                        0.138     0.138   0.0% |
SCF-cycle:                         645.015     0.058   0.0% |
 Davidson:                         536.754    89.039  12.8% |----|
  Apply H:                          73.671    71.943  10.3% |---|
   HMM T:                            1.728     1.728   0.2% |
  Subspace diag:                    99.639     0.012   0.0% |
   calc_h_matrix:                   76.721    11.235   1.6% ||
    Apply H:                        65.486    63.754   9.1% |---|
     HMM T:                          1.733     1.733   0.2% |
   diagonalize:                      6.791     6.791   1.0% |
   rotate_psi:                      16.115    16.115   2.3% ||
  calc. matrices:                  185.931    61.940   8.9% |---|
   Apply H:                        123.991   120.474  17.3% |------|
    HMM T:                           3.517     3.517   0.5% |
  diagonalize:                      61.546    61.546   8.8% |---|
  rotate_psi:                       26.928    26.928   3.9% |-|
 Density:                           43.135     0.001   0.0% |
  Atomic density matrices:           0.194     0.194   0.0% |
  Mix:                              15.252    15.252   2.2% ||
  Multipole moments:                 0.013     0.013   0.0% |
  Pseudo density:                   27.676    27.433   3.9% |-|
   Symmetrize density:               0.243     0.243   0.0% |
 Hamiltonian:                       63.271     0.107   0.0% |
  Atomic:                           31.281     0.071   0.0% |
   XC Correction:                   31.209    31.209   4.5% |-|
  Calculate atomic Hamiltonians:    15.903    15.903   2.3% ||
  Communicate:                       0.000     0.000   0.0% |
  Poisson:                           0.142     0.142   0.0% |
  XC 3D grid:                       15.839    15.839   2.3% ||
 Orthonormalize:                     1.797     0.000   0.0% |
  calc_s_matrix:                     0.469     0.469   0.1% |
  inverse-cholesky:                  0.464     0.464   0.1% |
  projections:                       0.599     0.599   0.1% |
  rotate_psi_s:                      0.265     0.265   0.0% |
Set symmetry:                        0.001     0.001   0.0% |
Other:                               2.222     2.222   0.3% |
-----------------------------------------------------------
Total:                                       697.411 100.0%

Memory usage: 1.03 GiB
Date: Sun Mar 30 13:11:22 2025
