
  ___ ___ ___ _ _ _  
 |   |   |_  | | | | 
 | | | | | . | | | | 
 |__ |  _|___|_____|  24.6.0
 |___|_|             

User:   kerem@DESKTOP-CMKTO4T
Date:   Sat Mar 29 19:02:51 2025
Arch:   x86_64
Pid:    1486
CWD:    /home/kerem
Python: 3.12.9
gpaw:   /home/kerem/miniconda3/envs/gpaw-env/lib/python3.12/site-packages/gpaw
_gpaw:  /home/kerem/miniconda3/envs/gpaw-env/lib/python3.12/site-packages/
        _gpaw.cpython-312-x86_64-linux-gnu.so
ase:    /home/kerem/miniconda3/envs/gpaw-env/lib/python3.12/site-packages/ase (version 3.24.0)
numpy:  /home/kerem/miniconda3/envs/gpaw-env/lib/python3.12/site-packages/numpy (version 1.26.4)
scipy:  /home/kerem/miniconda3/envs/gpaw-env/lib/python3.12/site-packages/scipy (version 1.15.2)
libxc:  6.2.2
units:  Angstrom and eV
cores: 1
OpenMP: True
OMP_NUM_THREADS: 1

Input parameters:
  kpts: [2 2 1]
  mode: {ecut: 400.0,
         name: pw}
  xc: PBE

System changes: positions, numbers, cell, pbc, initial_charges, initial_magmoms 

Initialize ...

species:
  Ni:
    name: Nickel
    id: 0d9f38a9d6e76a2886f07bb4381f212b
    Z: 28.0
    valence: 16
    core: 12
    charge: 0.0
    file: /home/kerem/miniconda3/envs/gpaw-env/share/gpaw/Ni.PBE.gz
    compensation charges: {type: gauss,
                           rc: 0.36,
                           lmax: 2}
    cutoffs: {filter: 2.14,
              core: 1.98}
    projectors:
      #              energy  rcut
      - 4s(2.00)    -5.642   1.164
      - 3p(6.00)   -71.394   1.207
      - 4p(0.00)    -1.226   1.207
      - 3d(8.00)    -8.875   1.138
      -  s          21.570   1.164
      -  d          18.337   1.138
  
    # Using partial waves for Ni as LCAO basis

  H:
    name: Hydrogen
    id: d65de229564ff8ea4db303e23b6d1ecf
    Z: 1.0
    valence: 1
    core: 0
    charge: 0.0
    file: /home/kerem/miniconda3/envs/gpaw-env/share/gpaw/H.PBE.gz
    compensation charges: {type: gauss,
                           rc: 0.15,
                           lmax: 2}
    cutoffs: {filter: 0.85,
              core: 0.53}
    projectors:
      #              energy  rcut
      - 1s(1.00)    -6.494   0.476
      -  s          20.717   0.476
      -  p           0.000   0.476
  
    # Using partial waves for H as LCAO basis

Reference energy: -1116960.938401  # eV

Spin-paired calculation

Convergence criteria:
 Maximum [total energy] change in last 3 cyles: 0.0005 eV / valence electron
 Maximum integral of absolute [dens]ity change: 0.0001 electrons / valence electron
 Maximum integral of absolute [eigenst]ate change: 4e-08 eV^2 / valence electron
 Maximum number of scf [iter]ations: 333
 (Square brackets indicate name in SCF output, whereas a 'c' in
 the SCF output indicates the quantity has converged.)

Symmetries present (total): 2

  ( 1  0  0)  (-1  0  0)
  ( 0  1  0)  (-1  1  0)
  ( 0  0  1)  ( 0  0  1)
Note: your k-points are not as symmetric as your crystal!

4 k-points: 2 x 2 x 1 Monkhorst-Pack grid
2 k-points in the irreducible part of the Brillouin zone
       k-points in crystal coordinates                weights
   0:     0.25000000   -0.25000000    0.00000000          2/4
   1:     0.25000000    0.25000000    0.00000000          2/4

Wave functions: Plane wave expansion
  Cutoff energy: 400.000 eV
  Number of coefficients (min, max): 21105, 21124
  Pulay-stress correction: 0.000000 eV/Ang^3 (de/decut=0.000000)
  Using FFTW library
  ScaLapack parameters: grid=1x1, blocksize=None
  Wavefunction extrapolation:
    Improved wavefunction reuse through dual PAW basis 

Occupation numbers: Fermi-Dirac:
  width: 0.1000  # eV
 

Eigensolver
   Davidson(niter=2) 

Densities:
  Coarse grid: 35*35*112 grid
  Fine grid: 70*70*224 grid
  Total Charge: 0.000000 

Density mixing:
  Method: separate
  Backend: pulay
  Linear mixing parameter: 0.05
  old densities: 5
  Damping of long wavelength oscillations: 50 

Hamiltonian:
  XC and Coulomb potentials evaluated on a 70*70*224 grid
  Using the PBE Exchange-Correlation functional
  External potential:
    NoExternalPotential
 

XC parameters: PBE with 2 nearest neighbor stencil

Memory estimate:
  Process memory now: 1032.15 MiB
  Calculator: 368.46 MiB
    Density: 65.71 MiB
      Arrays: 27.22 MiB
      Localized functions: 28.02 MiB
      Mixer: 10.47 MiB
    Hamiltonian: 18.48 MiB
      Arrays: 17.79 MiB
      XC: 0.00 MiB
      Poisson: 0.00 MiB
      vbar: 0.68 MiB
    Wavefunctions: 284.27 MiB
      Arrays psit_nG: 170.83 MiB
      Eigensolver: 97.75 MiB
      Projections: 4.01 MiB
      Projectors: 5.80 MiB
      PW-descriptor: 5.88 MiB

Total number of cores used: 1

Number of atoms: 29
Number of atomic orbitals: 326
Number of bands in calculation: 265
Number of valence electrons: 434
Bands to converge: occupied

... initialized

Initializing position-dependent things.

Density initialized from atomic densities
Creating initial wave functions:
  265 bands from LCAO basis set

                                         
                                         
                                         
                                         
                                         
                  H                      
                  H                      
                                         
                                         
                                         
                                         
                                         
                                         
                                         
                                         
                                         
                                         
                                         
                                         
                                         
                                         
                                         
                                         
                                         
                                         
                                         
                                         
                Ni    Ni    Ni           
           Ni    NNi   NNi   Ni          
       Ni    Ni    Ni                    
            Ni    Ni    Ni               
        Ni    Ni   NNi   Ni    Ni        
                                         
               Ni    Ni    Ni            
           Ni    Ni    Ni                
                                         
                                         
                                         
                                         

Positions:
   0 Ni     1.244508    0.718517   10.000000    ( 0.0000,  0.0000,  0.0000)
   1 Ni     3.733524    0.718517   10.000000    ( 0.0000,  0.0000,  0.0000)
   2 Ni     6.222540    0.718517   10.000000    ( 0.0000,  0.0000,  0.0000)
   3 Ni     2.489016    2.874068   10.000000    ( 0.0000,  0.0000,  0.0000)
   4 Ni     4.978032    2.874068   10.000000    ( 0.0000,  0.0000,  0.0000)
   5 Ni     7.467048    2.874068   10.000000    ( 0.0000,  0.0000,  0.0000)
   6 Ni     3.733524    5.029619   10.000000    ( 0.0000,  0.0000,  0.0000)
   7 Ni     6.222540    5.029619   10.000000    ( 0.0000,  0.0000,  0.0000)
   8 Ni     8.711556    5.029619   10.000000    ( 0.0000,  0.0000,  0.0000)
   9 Ni     0.000000    1.437034   12.032273    ( 0.0000,  0.0000,  0.0000)
  10 Ni     2.489016    1.437034   12.032273    ( 0.0000,  0.0000,  0.0000)
  11 Ni     4.978032    1.437034   12.032273    ( 0.0000,  0.0000,  0.0000)
  12 Ni     1.244508    3.592585   12.032273    ( 0.0000,  0.0000,  0.0000)
  13 Ni     3.733524    3.592585   12.032273    ( 0.0000,  0.0000,  0.0000)
  14 Ni     6.222540    3.592585   12.032273    ( 0.0000,  0.0000,  0.0000)
  15 Ni     2.489016    5.748136   12.032273    ( 0.0000,  0.0000,  0.0000)
  16 Ni     4.978032    5.748136   12.032273    ( 0.0000,  0.0000,  0.0000)
  17 Ni     7.467048    5.748136   12.032273    ( 0.0000,  0.0000,  0.0000)
  18 Ni     0.000000    0.000000   14.064546    ( 0.0000,  0.0000,  0.0000)
  19 Ni     2.489016    0.000000   14.064546    ( 0.0000,  0.0000,  0.0000)
  20 Ni     4.978032    0.000000   14.064546    ( 0.0000,  0.0000,  0.0000)
  21 Ni     1.244508    2.155551   14.064546    ( 0.0000,  0.0000,  0.0000)
  22 Ni     3.733524    2.155551   14.064546    ( 0.0000,  0.0000,  0.0000)
  23 Ni     6.222540    2.155551   14.064546    ( 0.0000,  0.0000,  0.0000)
  24 Ni     2.489016    4.311102   14.064546    ( 0.0000,  0.0000,  0.0000)
  25 Ni     4.978032    4.311102   14.064546    ( 0.0000,  0.0000,  0.0000)
  26 Ni     7.467048    4.311102   14.064546    ( 0.0000,  0.0000,  0.0000)
  27 H      3.733524    3.233326   31.064546    ( 0.0000,  0.0000,  0.0000)
  28 H      3.733524    3.233326   31.804546    ( 0.0000,  0.0000,  0.0000)

Unit cell:
           periodic     x           y           z      points  spacing
  1. axis:    yes    7.467048    0.000000    0.000000    35     0.1848
  2. axis:    yes    3.733524    6.466653    0.000000    35     0.1848
  3. axis:    no     0.000000    0.000000   24.064546   112     0.2149

  Lengths:   7.467048   7.467048  24.064546
  Angles:   90.000000  90.000000  60.000000

Effective grid spacing dv^(1/3) = 0.2038

     iter     time        total  log10-change:
                         energy   eigst   dens
iter:   1 19:03:43  -194.177763
iter:   2 19:03:56  -191.774938   -0.36  -1.54
iter:   3 19:04:10  -192.373849   -0.82  -1.63
iter:   4 19:04:23  -208.924004   -1.02  -1.75
iter:   5 19:04:38  -192.453935   -1.50  -1.65
iter:   6 19:04:50  -189.360771   -2.03  -1.83
iter:   7 19:05:03  -192.524634   -1.62  -1.94
iter:   8 19:05:18  -189.571018   -2.31  -2.00
iter:   9 19:05:30  -188.904173   -2.82  -2.14
iter:  10 19:05:45  -188.939418   -2.78  -2.23
iter:  11 19:05:58  -188.838875c  -2.64  -2.41
iter:  12 19:06:10  -188.600614   -3.47  -2.57
iter:  13 19:06:25  -188.617818   -3.86  -2.74
iter:  14 19:06:38  -188.623375c  -3.80  -2.76
iter:  15 19:06:52  -188.616625c  -3.92  -2.84
iter:  16 19:07:05  -188.597958c  -4.18  -2.88
iter:  17 19:07:18  -188.603855c  -4.15  -2.94
iter:  18 19:07:33  -188.597242c  -4.31  -3.01
iter:  19 19:07:46  -188.586415c  -4.49  -3.05
iter:  20 19:08:01  -188.586736c  -4.47  -3.16
iter:  21 19:08:13  -188.588856c  -4.87  -3.29
iter:  22 19:08:26  -188.583862c  -5.03  -3.24
iter:  23 19:08:41  -188.581417c  -5.30  -3.36
iter:  24 19:08:54  -188.584107c  -5.01  -3.47
iter:  25 19:09:08  -188.581492c  -5.63  -3.45
iter:  26 19:09:21  -188.580987c  -5.60  -3.56
iter:  27 19:09:34  -188.581844c  -5.54  -3.70
iter:  28 19:09:48  -188.580864c  -5.81  -3.68
iter:  29 19:10:01  -188.580257c  -5.96  -3.83
iter:  30 19:10:15  -188.580240c  -6.63  -4.08c
iter:  31 19:10:28  -188.580232c  -7.34  -4.19c
iter:  32 19:10:41  -188.580232c  -6.81  -4.25c
iter:  33 19:10:55  -188.580393c  -6.77  -4.35c
iter:  34 19:11:08  -188.580268c  -6.96  -4.24c
iter:  35 19:11:23  -188.580206c  -7.54c -4.48c

Converged after 35 iterations.

Dipole moment: (-0.290414, -0.146529, -0.060639) |e|*Ang

Energy contributions relative to reference atoms: (reference = -1116960.938401)

Kinetic:       +161.351781
Potential:     -119.397217
External:        +0.000000
XC:            -232.722236
Entropy (-ST):   -2.734670
Local:           +3.554800
SIC:             +0.000000
--------------------------
Free energy:   -189.947541
Extrapolated:  -188.580206

Showing all kpts
 Kpt  Band  Eigenvalues  Occupancy
  0   215     -1.71218    1.31429
  0   216     -1.71021    1.30537
  0   217     -1.66806    1.10429
  0   218     -1.66552    1.09172

  1   215     -1.68481    1.18624
  1   216     -1.67329    1.13011
  1   217     -1.66827    1.10533
  1   218     -1.66727    1.10039


Fermi level: -1.64712

No gap
No difference between direct/indirect transitions
Timing:                              incl.     excl.
-----------------------------------------------------------
Hamiltonian:                         1.424     0.002   0.0% |
 Atomic:                             0.644     0.002   0.0% |
  XC Correction:                     0.643     0.643   0.1% |
 Calculate atomic Hamiltonians:      0.430     0.430   0.1% |
 Communicate:                        0.000     0.000   0.0% |
 Initialize Hamiltonian:             0.001     0.001   0.0% |
 Poisson:                            0.003     0.003   0.0% |
 XC 3D grid:                         0.344     0.344   0.1% |
LCAO initialization:                38.531     0.038   0.0% |
 LCAO eigensolver:                   3.258     0.001   0.0% |
  Calculate projections:             0.006     0.006   0.0% |
  DenseAtomicCorrection:             0.161     0.161   0.0% |
  Distribute overlap matrix:         0.001     0.001   0.0% |
  Orbital Layouts:                   0.064     0.064   0.0% |
  Potential matrix:                  2.986     2.986   0.6% |
  Sum over cells:                    0.039     0.039   0.0% |
 LCAO to grid:                      34.282    34.282   6.7% |--|
 Set positions (LCAO WFS):           0.953     0.284   0.1% |
  Basic WFS set positions:           0.001     0.001   0.0% |
  Basis functions set positions:     0.000     0.000   0.0% |
  P tci:                             0.478     0.478   0.1% |
  ST tci:                            0.177     0.177   0.0% |
  mktci:                             0.013     0.013   0.0% |
PWDescriptor:                        0.015     0.015   0.0% |
SCF-cycle:                         470.223     0.048   0.0% |
 Davidson:                         376.083    70.302  13.7% |----|
  Apply H:                          49.487    47.926   9.4% |---|
   HMM T:                            1.561     1.561   0.3% |
  Subspace diag:                    80.487     0.010   0.0% |
   calc_h_matrix:                   67.878    14.071   2.7% ||
    Apply H:                        53.807    52.239  10.2% |---|
     HMM T:                          1.568     1.568   0.3% |
   diagonalize:                      2.924     2.924   0.6% |
   rotate_psi:                       9.675     9.675   1.9% ||
  calc. matrices:                  146.408    44.358   8.7% |--|
   Apply H:                        102.051    98.913  19.3% |-------|
    HMM T:                           3.138     3.138   0.6% |
  diagonalize:                      11.482    11.482   2.2% ||
  rotate_psi:                       17.916    17.916   3.5% ||
 Density:                           41.524     0.001   0.0% |
  Atomic density matrices:           0.162     0.162   0.0% |
  Mix:                              18.092    18.092   3.5% ||
  Multipole moments:                 0.013     0.013   0.0% |
  Pseudo density:                   23.256    23.048   4.5% |-|
   Symmetrize density:               0.208     0.208   0.0% |
 Hamiltonian:                       51.955     0.089   0.0% |
  Atomic:                           25.312     0.058   0.0% |
   XC Correction:                   25.253    25.253   4.9% |-|
  Calculate atomic Hamiltonians:    14.060    14.060   2.7% ||
  Communicate:                       0.000     0.000   0.0% |
  Poisson:                           0.112     0.112   0.0% |
  XC 3D grid:                       12.382    12.382   2.4% ||
 Orthonormalize:                     0.612     0.000   0.0% |
  calc_s_matrix:                     0.070     0.070   0.0% |
  inverse-cholesky:                  0.008     0.008   0.0% |
  projections:                       0.306     0.306   0.1% |
  rotate_psi_s:                      0.227     0.227   0.0% |
Set symmetry:                        0.001     0.001   0.0% |
Other:                               1.529     1.529   0.3% |
-----------------------------------------------------------
Total:                                       511.722 100.0%

Memory usage: 1.01 GiB
Date: Sat Mar 29 19:11:23 2025
