
  ___ ___ ___ _ _ _  
 |   |   |_  | | | | 
 | | | | | . | | | | 
 |__ |  _|___|_____|  24.6.0
 |___|_|             

User:   kerem@DESKTOP-CMKTO4T
Date:   Sat Mar 29 18:08:16 2025
Arch:   x86_64
Pid:    1028
CWD:    /home/kerem
Python: 3.12.9
gpaw:   /home/kerem/miniconda3/envs/gpaw-env/lib/python3.12/site-packages/gpaw
_gpaw:  /home/kerem/miniconda3/envs/gpaw-env/lib/python3.12/site-packages/
        _gpaw.cpython-312-x86_64-linux-gnu.so
ase:    /home/kerem/miniconda3/envs/gpaw-env/lib/python3.12/site-packages/ase (version 3.24.0)
numpy:  /home/kerem/miniconda3/envs/gpaw-env/lib/python3.12/site-packages/numpy (version 1.26.4)
scipy:  /home/kerem/miniconda3/envs/gpaw-env/lib/python3.12/site-packages/scipy (version 1.15.2)
libxc:  6.2.2
units:  Angstrom and eV
cores: 1
OpenMP: True
OMP_NUM_THREADS: 1

Input parameters:
  kpts: [2 2 1]
  mode: {ecut: 400.0,
         name: pw}
  xc: PBE

System changes: positions, numbers, cell, pbc, initial_charges, initial_magmoms 

Initialize ...

species:
  Ni:
    name: Nickel
    id: 0d9f38a9d6e76a2886f07bb4381f212b
    Z: 28.0
    valence: 16
    core: 12
    charge: 0.0
    file: /home/kerem/miniconda3/envs/gpaw-env/share/gpaw/Ni.PBE.gz
    compensation charges: {type: gauss,
                           rc: 0.36,
                           lmax: 2}
    cutoffs: {filter: 2.14,
              core: 1.98}
    projectors:
      #              energy  rcut
      - 4s(2.00)    -5.642   1.164
      - 3p(6.00)   -71.394   1.207
      - 4p(0.00)    -1.226   1.207
      - 3d(8.00)    -8.875   1.138
      -  s          21.570   1.164
      -  d          18.337   1.138
  
    # Using partial waves for Ni as LCAO basis

  H:
    name: Hydrogen
    id: d65de229564ff8ea4db303e23b6d1ecf
    Z: 1.0
    valence: 1
    core: 0
    charge: 0.0
    file: /home/kerem/miniconda3/envs/gpaw-env/share/gpaw/H.PBE.gz
    compensation charges: {type: gauss,
                           rc: 0.15,
                           lmax: 2}
    cutoffs: {filter: 0.85,
              core: 0.53}
    projectors:
      #              energy  rcut
      - 1s(1.00)    -6.494   0.476
      -  s          20.717   0.476
      -  p           0.000   0.476
  
    # Using partial waves for H as LCAO basis

Reference energy: -1116960.938401  # eV

Spin-paired calculation

Convergence criteria:
 Maximum [total energy] change in last 3 cyles: 0.0005 eV / valence electron
 Maximum integral of absolute [dens]ity change: 0.0001 electrons / valence electron
 Maximum integral of absolute [eigenst]ate change: 4e-08 eV^2 / valence electron
 Maximum number of scf [iter]ations: 333
 (Square brackets indicate name in SCF output, whereas a 'c' in
 the SCF output indicates the quantity has converged.)

Symmetries present (total): 2

  ( 1  0  0)  (-1  0  0)
  ( 0  1  0)  (-1  1  0)
  ( 0  0  1)  ( 0  0  1)
Note: your k-points are not as symmetric as your crystal!

4 k-points: 2 x 2 x 1 Monkhorst-Pack grid
2 k-points in the irreducible part of the Brillouin zone
       k-points in crystal coordinates                weights
   0:     0.25000000   -0.25000000    0.00000000          2/4
   1:     0.25000000    0.25000000    0.00000000          2/4

Wave functions: Plane wave expansion
  Cutoff energy: 400.000 eV
  Number of coefficients (min, max): 21105, 21124
  Pulay-stress correction: 0.000000 eV/Ang^3 (de/decut=0.000000)
  Using FFTW library
  ScaLapack parameters: grid=1x1, blocksize=None
  Wavefunction extrapolation:
    Improved wavefunction reuse through dual PAW basis 

Occupation numbers: Fermi-Dirac:
  width: 0.1000  # eV
 

Eigensolver
   Davidson(niter=2) 

Densities:
  Coarse grid: 35*35*112 grid
  Fine grid: 70*70*224 grid
  Total Charge: 0.000000 

Density mixing:
  Method: separate
  Backend: pulay
  Linear mixing parameter: 0.05
  old densities: 5
  Damping of long wavelength oscillations: 50 

Hamiltonian:
  XC and Coulomb potentials evaluated on a 70*70*224 grid
  Using the PBE Exchange-Correlation functional
  External potential:
    NoExternalPotential
 

XC parameters: PBE with 2 nearest neighbor stencil

Memory estimate:
  Process memory now: 262.53 MiB
  Calculator: 368.46 MiB
    Density: 65.71 MiB
      Arrays: 27.22 MiB
      Localized functions: 28.02 MiB
      Mixer: 10.47 MiB
    Hamiltonian: 18.48 MiB
      Arrays: 17.79 MiB
      XC: 0.00 MiB
      Poisson: 0.00 MiB
      vbar: 0.68 MiB
    Wavefunctions: 284.27 MiB
      Arrays psit_nG: 170.83 MiB
      Eigensolver: 97.75 MiB
      Projections: 4.01 MiB
      Projectors: 5.80 MiB
      PW-descriptor: 5.88 MiB

Total number of cores used: 1

Number of atoms: 29
Number of atomic orbitals: 326
Number of bands in calculation: 265
Number of valence electrons: 434
Bands to converge: occupied

... initialized

Initializing position-dependent things.

Density initialized from atomic densities
Creating initial wave functions:
  265 bands from LCAO basis set

                                         
                                         
                                         
                                         
                                         
                  H                      
                  H                      
                                         
                                         
                                         
                                         
                                         
                Ni    Ni    Ni           
           Ni    NNi   NNi   Ni          
       Ni    Ni    Ni                    
            Ni    Ni    Ni               
        Ni    Ni   NNi   Ni    Ni        
                                         
               Ni    Ni    Ni            
           Ni    Ni    Ni                
                                         
                                         
                                         
                                         

Positions:
   0 Ni     1.244508    0.718517   10.000000    ( 0.0000,  0.0000,  0.0000)
   1 Ni     3.733524    0.718517   10.000000    ( 0.0000,  0.0000,  0.0000)
   2 Ni     6.222540    0.718517   10.000000    ( 0.0000,  0.0000,  0.0000)
   3 Ni     2.489016    2.874068   10.000000    ( 0.0000,  0.0000,  0.0000)
   4 Ni     4.978032    2.874068   10.000000    ( 0.0000,  0.0000,  0.0000)
   5 Ni     7.467048    2.874068   10.000000    ( 0.0000,  0.0000,  0.0000)
   6 Ni     3.733524    5.029619   10.000000    ( 0.0000,  0.0000,  0.0000)
   7 Ni     6.222540    5.029619   10.000000    ( 0.0000,  0.0000,  0.0000)
   8 Ni     8.711556    5.029619   10.000000    ( 0.0000,  0.0000,  0.0000)
   9 Ni     0.000000    1.437034   12.032273    ( 0.0000,  0.0000,  0.0000)
  10 Ni     2.489016    1.437034   12.032273    ( 0.0000,  0.0000,  0.0000)
  11 Ni     4.978032    1.437034   12.032273    ( 0.0000,  0.0000,  0.0000)
  12 Ni     1.244508    3.592585   12.032273    ( 0.0000,  0.0000,  0.0000)
  13 Ni     3.733524    3.592585   12.032273    ( 0.0000,  0.0000,  0.0000)
  14 Ni     6.222540    3.592585   12.032273    ( 0.0000,  0.0000,  0.0000)
  15 Ni     2.489016    5.748136   12.032273    ( 0.0000,  0.0000,  0.0000)
  16 Ni     4.978032    5.748136   12.032273    ( 0.0000,  0.0000,  0.0000)
  17 Ni     7.467048    5.748136   12.032273    ( 0.0000,  0.0000,  0.0000)
  18 Ni     0.000000    0.000000   14.064546    ( 0.0000,  0.0000,  0.0000)
  19 Ni     2.489016    0.000000   14.064546    ( 0.0000,  0.0000,  0.0000)
  20 Ni     4.978032    0.000000   14.064546    ( 0.0000,  0.0000,  0.0000)
  21 Ni     1.244508    2.155551   14.064546    ( 0.0000,  0.0000,  0.0000)
  22 Ni     3.733524    2.155551   14.064546    ( 0.0000,  0.0000,  0.0000)
  23 Ni     6.222540    2.155551   14.064546    ( 0.0000,  0.0000,  0.0000)
  24 Ni     2.489016    4.311102   14.064546    ( 0.0000,  0.0000,  0.0000)
  25 Ni     4.978032    4.311102   14.064546    ( 0.0000,  0.0000,  0.0000)
  26 Ni     7.467048    4.311102   14.064546    ( 0.0000,  0.0000,  0.0000)
  27 H      3.733524    3.233326   19.064546    ( 0.0000,  0.0000,  0.0000)
  28 H      3.733524    3.233326   19.804546    ( 0.0000,  0.0000,  0.0000)

Unit cell:
           periodic     x           y           z      points  spacing
  1. axis:    yes    7.467048    0.000000    0.000000    35     0.1848
  2. axis:    yes    3.733524    6.466653    0.000000    35     0.1848
  3. axis:    no     0.000000    0.000000   24.064546   112     0.2149

  Lengths:   7.467048   7.467048  24.064546
  Angles:   90.000000  90.000000  60.000000

Effective grid spacing dv^(1/3) = 0.2038

     iter     time        total  log10-change:
                         energy   eigst   dens
iter:   1 18:09:15  -194.465970
iter:   2 18:09:28  -191.967417   -0.37  -1.53
iter:   3 18:09:43  -192.128126   -0.81  -1.63
iter:   4 18:09:56  -196.054561   -1.12  -1.76
iter:   5 18:10:11  -196.201014   -1.42  -1.76
iter:   6 18:10:24  -193.976965   -1.93  -1.77
iter:   7 18:10:38  -196.301250   -1.32  -1.89
iter:   8 18:10:52  -193.044647   -1.87  -1.96
iter:   9 18:11:06  -188.921237   -2.53  -2.04
iter:  10 18:11:20  -188.727340   -3.28  -2.22
iter:  11 18:11:34  -188.688138   -2.85  -2.27
iter:  12 18:11:48  -188.694212c  -3.06  -2.55
iter:  13 18:12:01  -188.801531c  -3.32  -2.63
iter:  14 18:12:15  -188.662002c  -3.52  -2.59
iter:  15 18:12:29  -188.640312c  -3.90  -2.85
iter:  16 18:12:42  -188.620066c  -4.53  -2.83
iter:  17 18:12:58  -188.649909c  -4.28  -2.94
iter:  18 18:13:12  -188.634836c  -4.19  -2.90
iter:  19 18:13:27  -188.631348c  -4.37  -3.03
iter:  20 18:13:40  -188.635934c  -4.80  -3.10
iter:  21 18:13:53  -188.647833c  -4.19  -3.12
iter:  22 18:14:08  -188.626917c  -4.92  -3.12
iter:  23 18:14:21  -188.636227c  -4.54  -3.32
iter:  24 18:14:35  -188.626733c  -4.81  -3.25
iter:  25 18:14:48  -188.624330c  -5.39  -3.38
iter:  26 18:15:01  -188.623907c  -5.50  -3.57
iter:  27 18:15:16  -188.623400c  -5.71  -3.65
iter:  28 18:15:29  -188.623300c  -5.88  -3.73
iter:  29 18:15:43  -188.623040c  -5.64  -3.74
iter:  30 18:15:56  -188.623384c  -5.58  -3.92
iter:  31 18:16:09  -188.623558c  -5.78  -3.96
iter:  32 18:16:24  -188.622492c  -6.07  -3.86
iter:  33 18:16:37  -188.622463c  -7.19  -4.22c
iter:  34 18:16:52  -188.622420c  -7.34  -4.37c
iter:  35 18:17:05  -188.622468c  -7.18  -4.43c
iter:  36 18:17:18  -188.622470c  -7.38  -4.51c
iter:  37 18:17:33  -188.622469c  -7.77c -4.62c

Converged after 37 iterations.

Dipole moment: (-0.272021, -0.149500, -0.000339) |e|*Ang

Energy contributions relative to reference atoms: (reference = -1116960.938401)

Kinetic:       +159.477271
Potential:     -118.054664
External:        +0.000000
XC:            -232.214797
Entropy (-ST):   -2.741734
Local:           +3.540587
SIC:             +0.000000
--------------------------
Free energy:   -189.993336
Extrapolated:  -188.622469

Showing all kpts
 Kpt  Band  Eigenvalues  Occupancy
  0   215     -1.76745    1.30649
  0   216     -1.76651    1.30223
  0   217     -1.72471    1.10259
  0   218     -1.72227    1.09049

  1   215     -1.74153    1.18490
  1   216     -1.73005    1.12894
  1   217     -1.72467    1.10240
  1   218     -1.72384    1.09830


Fermi level: -1.70412

No gap
No difference between direct/indirect transitions
Timing:                              incl.     excl.
-----------------------------------------------------------
Hamiltonian:                         1.442     0.004   0.0% |
 Atomic:                             0.657     0.002   0.0% |
  XC Correction:                     0.655     0.655   0.1% |
 Calculate atomic Hamiltonians:      0.421     0.421   0.1% |
 Communicate:                        0.000     0.000   0.0% |
 Initialize Hamiltonian:             0.000     0.000   0.0% |
 Poisson:                            0.004     0.004   0.0% |
 XC 3D grid:                         0.355     0.355   0.1% |
LCAO initialization:                43.211     0.036   0.0% |
 LCAO eigensolver:                   5.181     0.001   0.0% |
  Calculate projections:             0.016     0.016   0.0% |
  DenseAtomicCorrection:             0.167     0.167   0.0% |
  Distribute overlap matrix:         0.001     0.001   0.0% |
  Orbital Layouts:                   0.399     0.399   0.1% |
  Potential matrix:                  4.545     4.545   0.8% |
  Sum over cells:                    0.052     0.052   0.0% |
 LCAO to grid:                      36.925    36.925   6.6% |--|
 Set positions (LCAO WFS):           1.069     0.248   0.0% |
  Basic WFS set positions:           0.001     0.001   0.0% |
  Basis functions set positions:     0.000     0.000   0.0% |
  P tci:                             0.563     0.563   0.1% |
  ST tci:                            0.236     0.236   0.0% |
  mktci:                             0.020     0.020   0.0% |
PWDescriptor:                        0.197     0.197   0.0% |
SCF-cycle:                         508.681     0.046   0.0% |
 Davidson:                         415.100    73.929  13.3% |----|
  Apply H:                          55.928    54.300   9.8% |---|
   HMM T:                            1.627     1.627   0.3% |
  Subspace diag:                    82.829     0.009   0.0% |
   calc_h_matrix:                   68.419    11.659   2.1% ||
    Apply H:                        56.761    55.175   9.9% |---|
     HMM T:                          1.586     1.586   0.3% |
   diagonalize:                      2.535     2.535   0.5% |
   rotate_psi:                      11.866    11.866   2.1% ||
  calc. matrices:                  168.013    53.206   9.6% |---|
   Apply H:                        114.807   111.587  20.0% |-------|
    HMM T:                           3.220     3.220   0.6% |
  diagonalize:                      13.511    13.511   2.4% ||
  rotate_psi:                       20.891    20.891   3.8% |-|
 Density:                           43.264     0.001   0.0% |
  Atomic density matrices:           0.173     0.173   0.0% |
  Mix:                              17.672    17.672   3.2% ||
  Multipole moments:                 0.013     0.013   0.0% |
  Pseudo density:                   25.406    25.187   4.5% |-|
   Symmetrize density:               0.219     0.219   0.0% |
 Hamiltonian:                       49.656     0.091   0.0% |
  Atomic:                           22.808     0.064   0.0% |
   XC Correction:                   22.744    22.744   4.1% |-|
  Calculate atomic Hamiltonians:    14.977    14.977   2.7% ||
  Communicate:                       0.000     0.000   0.0% |
  Poisson:                           0.122     0.122   0.0% |
  XC 3D grid:                       11.657    11.657   2.1% ||
 Orthonormalize:                     0.615     0.000   0.0% |
  calc_s_matrix:                     0.067     0.067   0.0% |
  inverse-cholesky:                  0.015     0.015   0.0% |
  projections:                       0.292     0.292   0.1% |
  rotate_psi_s:                      0.240     0.240   0.0% |
Set symmetry:                        0.001     0.001   0.0% |
Other:                               3.041     3.041   0.5% |
-----------------------------------------------------------
Total:                                       556.573 100.0%

Memory usage: 1.00 GiB
Date: Sat Mar 29 18:17:33 2025
