
  ___ ___ ___ _ _ _  
 |   |   |_  | | | | 
 | | | | | . | | | | 
 |__ |  _|___|_____|  24.6.0
 |___|_|             

User:   kerem@DESKTOP-CMKTO4T
Date:   Sat Mar 29 12:23:01 2025
Arch:   x86_64
Pid:    640
CWD:    /home/kerem
Python: 3.12.9
gpaw:   /home/kerem/miniconda3/envs/gpaw-env/lib/python3.12/site-packages/gpaw
_gpaw:  /home/kerem/miniconda3/envs/gpaw-env/lib/python3.12/site-packages/
        _gpaw.cpython-312-x86_64-linux-gnu.so
ase:    /home/kerem/miniconda3/envs/gpaw-env/lib/python3.12/site-packages/ase (version 3.24.0)
numpy:  /home/kerem/miniconda3/envs/gpaw-env/lib/python3.12/site-packages/numpy (version 1.26.4)
scipy:  /home/kerem/miniconda3/envs/gpaw-env/lib/python3.12/site-packages/scipy (version 1.15.2)
libxc:  6.2.2
units:  Angstrom and eV
cores: 1
OpenMP: True
OMP_NUM_THREADS: 1

Input parameters:
  kpts: [2 2 1]
  mode: {ecut: 400.0,
         name: pw}
  xc: PBE

System changes: positions, numbers, cell, pbc, initial_charges, initial_magmoms 

Initialize ...

species:
  Ni:
    name: Nickel
    id: 0d9f38a9d6e76a2886f07bb4381f212b
    Z: 28.0
    valence: 16
    core: 12
    charge: 0.0
    file: /home/kerem/miniconda3/envs/gpaw-env/share/gpaw/Ni.PBE.gz
    compensation charges: {type: gauss,
                           rc: 0.36,
                           lmax: 2}
    cutoffs: {filter: 2.14,
              core: 1.98}
    projectors:
      #              energy  rcut
      - 4s(2.00)    -5.642   1.164
      - 3p(6.00)   -71.394   1.207
      - 4p(0.00)    -1.226   1.207
      - 3d(8.00)    -8.875   1.138
      -  s          21.570   1.164
      -  d          18.337   1.138
  
    # Using partial waves for Ni as LCAO basis

  H:
    name: Hydrogen
    id: d65de229564ff8ea4db303e23b6d1ecf
    Z: 1.0
    valence: 1
    core: 0
    charge: 0.0
    file: /home/kerem/miniconda3/envs/gpaw-env/share/gpaw/H.PBE.gz
    compensation charges: {type: gauss,
                           rc: 0.15,
                           lmax: 2}
    cutoffs: {filter: 0.85,
              core: 0.53}
    projectors:
      #              energy  rcut
      - 1s(1.00)    -6.494   0.476
      -  s          20.717   0.476
      -  p           0.000   0.476
  
    # Using partial waves for H as LCAO basis

Reference energy: -1116960.938401  # eV

Spin-paired calculation

Convergence criteria:
 Maximum [total energy] change in last 3 cyles: 0.0005 eV / valence electron
 Maximum integral of absolute [dens]ity change: 0.0001 electrons / valence electron
 Maximum integral of absolute [eigenst]ate change: 4e-08 eV^2 / valence electron
 Maximum number of scf [iter]ations: 333
 (Square brackets indicate name in SCF output, whereas a 'c' in
 the SCF output indicates the quantity has converged.)

Symmetries present (total): 2

  ( 1  0  0)  (-1  0  0)
  ( 0  1  0)  (-1  1  0)
  ( 0  0  1)  ( 0  0  1)
Note: your k-points are not as symmetric as your crystal!

4 k-points: 2 x 2 x 1 Monkhorst-Pack grid
2 k-points in the irreducible part of the Brillouin zone
       k-points in crystal coordinates                weights
   0:     0.25000000   -0.25000000    0.00000000          2/4
   1:     0.25000000    0.25000000    0.00000000          2/4

Wave functions: Plane wave expansion
  Cutoff energy: 400.000 eV
  Number of coefficients (min, max): 21105, 21124
  Pulay-stress correction: 0.000000 eV/Ang^3 (de/decut=0.000000)
  Using FFTW library
  ScaLapack parameters: grid=1x1, blocksize=None
  Wavefunction extrapolation:
    Improved wavefunction reuse through dual PAW basis 

Occupation numbers: Fermi-Dirac:
  width: 0.1000  # eV
 

Eigensolver
   Davidson(niter=2) 

Densities:
  Coarse grid: 35*35*112 grid
  Fine grid: 70*70*224 grid
  Total Charge: 0.000000 

Density mixing:
  Method: separate
  Backend: pulay
  Linear mixing parameter: 0.05
  old densities: 5
  Damping of long wavelength oscillations: 50 

Hamiltonian:
  XC and Coulomb potentials evaluated on a 70*70*224 grid
  Using the PBE Exchange-Correlation functional
  External potential:
    NoExternalPotential
 

XC parameters: PBE with 2 nearest neighbor stencil

Memory estimate:
  Process memory now: 1086.96 MiB
  Calculator: 368.46 MiB
    Density: 65.71 MiB
      Arrays: 27.22 MiB
      Localized functions: 28.02 MiB
      Mixer: 10.47 MiB
    Hamiltonian: 18.48 MiB
      Arrays: 17.79 MiB
      XC: 0.00 MiB
      Poisson: 0.00 MiB
      vbar: 0.68 MiB
    Wavefunctions: 284.27 MiB
      Arrays psit_nG: 170.83 MiB
      Eigensolver: 97.75 MiB
      Projections: 4.01 MiB
      Projectors: 5.80 MiB
      PW-descriptor: 5.88 MiB

Total number of cores used: 1

Number of atoms: 29
Number of atomic orbitals: 326
Number of bands in calculation: 265
Number of valence electrons: 434
Bands to converge: occupied

... initialized

Initializing position-dependent things.

Density initialized from atomic densities
Creating initial wave functions:
  265 bands from LCAO basis set

                                         
                                         
                                         
                                         
                                         
                  H                      
                  H                      
                                         
                Ni    Ni    Ni           
           Ni    NNi   NNi   Ni          
       Ni    Ni    Ni                    
            Ni    Ni    Ni               
        Ni    Ni   NNi   Ni    Ni        
                                         
               Ni    Ni    Ni            
           Ni    Ni    Ni                
                                         
                                         
                                         
                                         

Positions:
   0 Ni     1.244508    0.718517   10.000000    ( 0.0000,  0.0000,  0.0000)
   1 Ni     3.733524    0.718517   10.000000    ( 0.0000,  0.0000,  0.0000)
   2 Ni     6.222540    0.718517   10.000000    ( 0.0000,  0.0000,  0.0000)
   3 Ni     2.489016    2.874068   10.000000    ( 0.0000,  0.0000,  0.0000)
   4 Ni     4.978032    2.874068   10.000000    ( 0.0000,  0.0000,  0.0000)
   5 Ni     7.467048    2.874068   10.000000    ( 0.0000,  0.0000,  0.0000)
   6 Ni     3.733524    5.029619   10.000000    ( 0.0000,  0.0000,  0.0000)
   7 Ni     6.222540    5.029619   10.000000    ( 0.0000,  0.0000,  0.0000)
   8 Ni     8.711556    5.029619   10.000000    ( 0.0000,  0.0000,  0.0000)
   9 Ni     0.000000    1.437034   12.032273    ( 0.0000,  0.0000,  0.0000)
  10 Ni     2.489016    1.437034   12.032273    ( 0.0000,  0.0000,  0.0000)
  11 Ni     4.978032    1.437034   12.032273    ( 0.0000,  0.0000,  0.0000)
  12 Ni     1.244508    3.592585   12.032273    ( 0.0000,  0.0000,  0.0000)
  13 Ni     3.733524    3.592585   12.032273    ( 0.0000,  0.0000,  0.0000)
  14 Ni     6.222540    3.592585   12.032273    ( 0.0000,  0.0000,  0.0000)
  15 Ni     2.489016    5.748136   12.032273    ( 0.0000,  0.0000,  0.0000)
  16 Ni     4.978032    5.748136   12.032273    ( 0.0000,  0.0000,  0.0000)
  17 Ni     7.467048    5.748136   12.032273    ( 0.0000,  0.0000,  0.0000)
  18 Ni     0.000000    0.000000   14.064546    ( 0.0000,  0.0000,  0.0000)
  19 Ni     2.489016    0.000000   14.064546    ( 0.0000,  0.0000,  0.0000)
  20 Ni     4.978032    0.000000   14.064546    ( 0.0000,  0.0000,  0.0000)
  21 Ni     1.244508    2.155551   14.064546    ( 0.0000,  0.0000,  0.0000)
  22 Ni     3.733524    2.155551   14.064546    ( 0.0000,  0.0000,  0.0000)
  23 Ni     6.222540    2.155551   14.064546    ( 0.0000,  0.0000,  0.0000)
  24 Ni     2.489016    4.311102   14.064546    ( 0.0000,  0.0000,  0.0000)
  25 Ni     4.978032    4.311102   14.064546    ( 0.0000,  0.0000,  0.0000)
  26 Ni     7.467048    4.311102   14.064546    ( 0.0000,  0.0000,  0.0000)
  27 H      3.733524    3.233326   15.664546    ( 0.0000,  0.0000,  0.0000)
  28 H      3.733524    3.233326   16.404546    ( 0.0000,  0.0000,  0.0000)

Unit cell:
           periodic     x           y           z      points  spacing
  1. axis:    yes    7.467048    0.000000    0.000000    35     0.1848
  2. axis:    yes    3.733524    6.466653    0.000000    35     0.1848
  3. axis:    no     0.000000    0.000000   24.064546   112     0.2149

  Lengths:   7.467048   7.467048  24.064546
  Angles:   90.000000  90.000000  60.000000

Effective grid spacing dv^(1/3) = 0.2038

     iter     time        total  log10-change:
                         energy   eigst   dens
iter:   1 12:23:52  -193.926661
iter:   2 12:24:04  -191.498181   -0.36  -1.54
iter:   3 12:24:16  -193.849544   -0.82  -1.63
iter:   4 12:24:28  -212.839772   -1.03  -1.74
iter:   5 12:24:40  -192.266512   -1.48  -1.63
iter:   6 12:24:52  -189.356944   -1.98  -1.83
iter:   7 12:25:04  -191.007718   -1.60  -1.94
iter:   8 12:25:17  -189.387476   -2.23  -2.03
iter:   9 12:25:29  -189.087044   -2.62  -2.13
iter:  10 12:25:41  -189.951660   -2.36  -2.20
iter:  11 12:25:53  -188.599882   -2.93  -2.17
iter:  12 12:26:05  -188.670880   -2.69  -2.35
iter:  13 12:26:17  -188.489493c  -3.33  -2.55
iter:  14 12:26:31  -188.532622c  -3.39  -2.69
iter:  15 12:26:43  -188.431734c  -4.12  -2.61
iter:  16 12:26:55  -188.767584   -3.42  -2.75
iter:  17 12:27:07  -188.426941   -3.74  -2.53
iter:  18 12:27:19  -188.387103   -4.08  -2.84
iter:  19 12:27:31  -188.391130c  -4.45  -3.07
iter:  20 12:27:43  -188.386956c  -4.56  -3.11
iter:  21 12:27:55  -188.383619c  -4.88  -3.17
iter:  22 12:28:07  -188.387830c  -4.69  -3.25
iter:  23 12:28:19  -188.381996c  -4.99  -3.27
iter:  24 12:28:31  -188.383768c  -5.35  -3.39
iter:  25 12:28:43  -188.382167c  -5.41  -3.38
iter:  26 12:28:55  -188.384353c  -5.45  -3.47
iter:  27 12:29:07  -188.383158c  -5.18  -3.48
iter:  28 12:29:20  -188.382774c  -5.74  -3.55
iter:  29 12:29:31  -188.382998c  -5.63  -3.67
iter:  30 12:29:43  -188.383013c  -5.76  -3.65
iter:  31 12:29:55  -188.382633c  -5.80  -3.75
iter:  32 12:30:07  -188.382345c  -6.08  -3.76
iter:  33 12:30:19  -188.382208c  -6.69  -3.91
iter:  34 12:30:31  -188.382504c  -6.46  -3.94
iter:  35 12:30:43  -188.382195c  -6.73  -3.92
iter:  36 12:30:55  -188.382486c  -6.82  -4.01c
iter:  37 12:31:07  -188.382217c  -6.39  -3.96
iter:  38 12:31:19  -188.382356c  -6.48  -4.05c
iter:  39 12:31:31  -188.382179c  -6.78  -4.01c
iter:  40 12:31:43  -188.382269c  -7.14  -4.13c
iter:  41 12:31:55  -188.382242c  -6.30  -4.14c
iter:  42 12:32:07  -188.382081c  -6.77  -4.02c
iter:  43 12:32:19  -188.382105c  -7.29  -4.23c
iter:  44 12:32:31  -188.382045c  -6.94  -4.30c
iter:  45 12:32:43  -188.382051c  -7.14  -4.23c
iter:  46 12:32:55  -188.382083c  -7.26  -4.36c
iter:  47 12:33:07  -188.382122c  -7.27  -4.41c
iter:  48 12:33:19  -188.382248c  -6.78  -4.35c
iter:  49 12:33:31  -188.382078c  -6.93  -4.24c
iter:  50 12:33:43  -188.382156c  -7.26  -4.41c
iter:  51 12:33:56  -188.382093c  -7.65c -4.48c

Converged after 51 iterations.

Dipole moment: (-0.411801, -0.153997, 0.138975) |e|*Ang

Energy contributions relative to reference atoms: (reference = -1116960.938401)

Kinetic:       +163.805812
Potential:     -120.618311
External:        +0.000000
XC:            -233.742349
Entropy (-ST):   -2.714559
Local:           +3.530035
SIC:             +0.000000
--------------------------
Free energy:   -189.739373
Extrapolated:  -188.382093

Showing all kpts
 Kpt  Band  Eigenvalues  Occupancy
  0   215     -1.63064    1.31225
  0   216     -1.62933    1.30634
  0   217     -1.58782    1.10853
  0   218     -1.58529    1.09597

  1   215     -1.60646    1.19944
  1   216     -1.59450    1.14140
  1   217     -1.59004    1.11949
  1   218     -1.58745    1.10668


Fermi level: -1.56603

No gap
No difference between direct/indirect transitions
Timing:                              incl.     excl.
-----------------------------------------------------------
Hamiltonian:                         1.311     0.003   0.0% |
 Atomic:                             0.636     0.002   0.0% |
  XC Correction:                     0.635     0.635   0.1% |
 Calculate atomic Hamiltonians:      0.368     0.368   0.1% |
 Communicate:                        0.000     0.000   0.0% |
 Initialize Hamiltonian:             0.001     0.001   0.0% |
 Poisson:                            0.004     0.004   0.0% |
 XC 3D grid:                         0.299     0.299   0.0% |
LCAO initialization:                37.590     0.037   0.0% |
 LCAO eigensolver:                   3.138     0.001   0.0% |
  Calculate projections:             0.005     0.005   0.0% |
  DenseAtomicCorrection:             0.008     0.008   0.0% |
  Distribute overlap matrix:         0.001     0.001   0.0% |
  Orbital Layouts:                   0.066     0.066   0.0% |
  Potential matrix:                  3.048     3.048   0.5% |
  Sum over cells:                    0.009     0.009   0.0% |
 LCAO to grid:                      33.641    33.641   5.1% |-|
 Set positions (LCAO WFS):           0.775     0.137   0.0% |
  Basic WFS set positions:           0.001     0.001   0.0% |
  Basis functions set positions:     0.000     0.000   0.0% |
  P tci:                             0.444     0.444   0.1% |
  ST tci:                            0.180     0.180   0.0% |
  mktci:                             0.013     0.013   0.0% |
PWDescriptor:                        0.013     0.013   0.0% |
SCF-cycle:                         614.191     0.062   0.0% |
 Davidson:                         495.364    78.468  12.0% |----|
  Apply H:                          73.652    71.255  10.9% |---|
   HMM T:                            2.398     2.398   0.4% |
  Subspace diag:                   100.938     0.015   0.0% |
   calc_h_matrix:                   85.194    13.036   2.0% ||
    Apply H:                        72.158    69.758  10.7% |---|
     HMM T:                          2.401     2.401   0.4% |
   diagonalize:                      2.722     2.722   0.4% |
   rotate_psi:                      13.008    13.008   2.0% ||
  calc. matrices:                  201.259    53.504   8.2% |--|
   Apply H:                        147.755   142.932  21.8% |--------|
    HMM T:                           4.823     4.823   0.7% |
  diagonalize:                      17.435    17.435   2.7% ||
  rotate_psi:                       23.611    23.611   3.6% ||
 Density:                           53.118     0.001   0.0% |
  Atomic density matrices:           0.249     0.249   0.0% |
  Mix:                              18.207    18.207   2.8% ||
  Multipole moments:                 0.016     0.016   0.0% |
  Pseudo density:                   34.645    34.335   5.2% |-|
   Symmetrize density:               0.311     0.311   0.0% |
 Hamiltonian:                       65.037     0.122   0.0% |
  Atomic:                           30.547     0.087   0.0% |
   XC Correction:                   30.460    30.460   4.7% |-|
  Calculate atomic Hamiltonians:    14.452    14.452   2.2% ||
  Communicate:                       0.000     0.000   0.0% |
  Poisson:                           0.172     0.172   0.0% |
  XC 3D grid:                       19.743    19.743   3.0% ||
 Orthonormalize:                     0.610     0.000   0.0% |
  calc_s_matrix:                     0.067     0.067   0.0% |
  inverse-cholesky:                  0.008     0.008   0.0% |
  projections:                       0.289     0.289   0.0% |
  rotate_psi_s:                      0.245     0.245   0.0% |
Set symmetry:                        0.001     0.001   0.0% |
Other:                               1.176     1.176   0.2% |
-----------------------------------------------------------
Total:                                       654.282 100.0%

Memory usage: 1.07 GiB
Date: Sat Mar 29 12:33:56 2025
