
  ___ ___ ___ _ _ _  
 |   |   |_  | | | | 
 | | | | | . | | | | 
 |__ |  _|___|_____|  24.6.0
 |___|_|             

User:   kerem@DESKTOP-CMKTO4T
Date:   Sat Mar 29 14:25:25 2025
Arch:   x86_64
Pid:    640
CWD:    /home/kerem
Python: 3.12.9
gpaw:   /home/kerem/miniconda3/envs/gpaw-env/lib/python3.12/site-packages/gpaw
_gpaw:  /home/kerem/miniconda3/envs/gpaw-env/lib/python3.12/site-packages/
        _gpaw.cpython-312-x86_64-linux-gnu.so
ase:    /home/kerem/miniconda3/envs/gpaw-env/lib/python3.12/site-packages/ase (version 3.24.0)
numpy:  /home/kerem/miniconda3/envs/gpaw-env/lib/python3.12/site-packages/numpy (version 1.26.4)
scipy:  /home/kerem/miniconda3/envs/gpaw-env/lib/python3.12/site-packages/scipy (version 1.15.2)
libxc:  6.2.2
units:  Angstrom and eV
cores: 1
OpenMP: True
OMP_NUM_THREADS: 1

Input parameters:
  kpts: [2 2 1]
  mode: {ecut: 400.0,
         name: pw}
  xc: PBE

System changes: positions, numbers, cell, pbc, initial_charges, initial_magmoms 

Initialize ...

species:
  Ni:
    name: Nickel
    id: 0d9f38a9d6e76a2886f07bb4381f212b
    Z: 28.0
    valence: 16
    core: 12
    charge: 0.0
    file: /home/kerem/miniconda3/envs/gpaw-env/share/gpaw/Ni.PBE.gz
    compensation charges: {type: gauss,
                           rc: 0.36,
                           lmax: 2}
    cutoffs: {filter: 2.14,
              core: 1.98}
    projectors:
      #              energy  rcut
      - 4s(2.00)    -5.642   1.164
      - 3p(6.00)   -71.394   1.207
      - 4p(0.00)    -1.226   1.207
      - 3d(8.00)    -8.875   1.138
      -  s          21.570   1.164
      -  d          18.337   1.138
  
    # Using partial waves for Ni as LCAO basis

  H:
    name: Hydrogen
    id: d65de229564ff8ea4db303e23b6d1ecf
    Z: 1.0
    valence: 1
    core: 0
    charge: 0.0
    file: /home/kerem/miniconda3/envs/gpaw-env/share/gpaw/H.PBE.gz
    compensation charges: {type: gauss,
                           rc: 0.15,
                           lmax: 2}
    cutoffs: {filter: 0.85,
              core: 0.53}
    projectors:
      #              energy  rcut
      - 1s(1.00)    -6.494   0.476
      -  s          20.717   0.476
      -  p           0.000   0.476
  
    # Using partial waves for H as LCAO basis

Reference energy: -1116960.938401  # eV

Spin-paired calculation

Convergence criteria:
 Maximum [total energy] change in last 3 cyles: 0.0005 eV / valence electron
 Maximum integral of absolute [dens]ity change: 0.0001 electrons / valence electron
 Maximum integral of absolute [eigenst]ate change: 4e-08 eV^2 / valence electron
 Maximum number of scf [iter]ations: 333
 (Square brackets indicate name in SCF output, whereas a 'c' in
 the SCF output indicates the quantity has converged.)

Symmetries present (total): 2

  ( 1  0  0)  (-1  0  0)
  ( 0  1  0)  (-1  1  0)
  ( 0  0  1)  ( 0  0  1)
Note: your k-points are not as symmetric as your crystal!

4 k-points: 2 x 2 x 1 Monkhorst-Pack grid
2 k-points in the irreducible part of the Brillouin zone
       k-points in crystal coordinates                weights
   0:     0.25000000   -0.25000000    0.00000000          2/4
   1:     0.25000000    0.25000000    0.00000000          2/4

Wave functions: Plane wave expansion
  Cutoff energy: 400.000 eV
  Number of coefficients (min, max): 21105, 21124
  Pulay-stress correction: 0.000000 eV/Ang^3 (de/decut=0.000000)
  Using FFTW library
  ScaLapack parameters: grid=1x1, blocksize=None
  Wavefunction extrapolation:
    Improved wavefunction reuse through dual PAW basis 

Occupation numbers: Fermi-Dirac:
  width: 0.1000  # eV
 

Eigensolver
   Davidson(niter=2) 

Densities:
  Coarse grid: 35*35*112 grid
  Fine grid: 70*70*224 grid
  Total Charge: 0.000000 

Density mixing:
  Method: separate
  Backend: pulay
  Linear mixing parameter: 0.05
  old densities: 5
  Damping of long wavelength oscillations: 50 

Hamiltonian:
  XC and Coulomb potentials evaluated on a 70*70*224 grid
  Using the PBE Exchange-Correlation functional
  External potential:
    NoExternalPotential
 

XC parameters: PBE with 2 nearest neighbor stencil

Memory estimate:
  Process memory now: 1131.55 MiB
  Calculator: 368.46 MiB
    Density: 65.71 MiB
      Arrays: 27.22 MiB
      Localized functions: 28.02 MiB
      Mixer: 10.47 MiB
    Hamiltonian: 18.48 MiB
      Arrays: 17.79 MiB
      XC: 0.00 MiB
      Poisson: 0.00 MiB
      vbar: 0.68 MiB
    Wavefunctions: 284.27 MiB
      Arrays psit_nG: 170.83 MiB
      Eigensolver: 97.75 MiB
      Projections: 4.01 MiB
      Projectors: 5.80 MiB
      PW-descriptor: 5.88 MiB

Total number of cores used: 1

Number of atoms: 29
Number of atomic orbitals: 326
Number of bands in calculation: 265
Number of valence electrons: 434
Bands to converge: occupied

... initialized

Initializing position-dependent things.

Density initialized from atomic densities
Creating initial wave functions:
  265 bands from LCAO basis set

                                         
                                         
                                         
                                         
                                         
                  H                      
                  H                      
                                         
                                         
                                         
                                         
                Ni    Ni    Ni           
           Ni    NNi   NNi   Ni          
       Ni    Ni    Ni                    
            Ni    Ni    Ni               
        Ni    Ni   NNi   Ni    Ni        
                                         
               Ni    Ni    Ni            
           Ni    Ni    Ni                
                                         
                                         
                                         
                                         

Positions:
   0 Ni     1.244508    0.718517   10.000000    ( 0.0000,  0.0000,  0.0000)
   1 Ni     3.733524    0.718517   10.000000    ( 0.0000,  0.0000,  0.0000)
   2 Ni     6.222540    0.718517   10.000000    ( 0.0000,  0.0000,  0.0000)
   3 Ni     2.489016    2.874068   10.000000    ( 0.0000,  0.0000,  0.0000)
   4 Ni     4.978032    2.874068   10.000000    ( 0.0000,  0.0000,  0.0000)
   5 Ni     7.467048    2.874068   10.000000    ( 0.0000,  0.0000,  0.0000)
   6 Ni     3.733524    5.029619   10.000000    ( 0.0000,  0.0000,  0.0000)
   7 Ni     6.222540    5.029619   10.000000    ( 0.0000,  0.0000,  0.0000)
   8 Ni     8.711556    5.029619   10.000000    ( 0.0000,  0.0000,  0.0000)
   9 Ni     0.000000    1.437034   12.032273    ( 0.0000,  0.0000,  0.0000)
  10 Ni     2.489016    1.437034   12.032273    ( 0.0000,  0.0000,  0.0000)
  11 Ni     4.978032    1.437034   12.032273    ( 0.0000,  0.0000,  0.0000)
  12 Ni     1.244508    3.592585   12.032273    ( 0.0000,  0.0000,  0.0000)
  13 Ni     3.733524    3.592585   12.032273    ( 0.0000,  0.0000,  0.0000)
  14 Ni     6.222540    3.592585   12.032273    ( 0.0000,  0.0000,  0.0000)
  15 Ni     2.489016    5.748136   12.032273    ( 0.0000,  0.0000,  0.0000)
  16 Ni     4.978032    5.748136   12.032273    ( 0.0000,  0.0000,  0.0000)
  17 Ni     7.467048    5.748136   12.032273    ( 0.0000,  0.0000,  0.0000)
  18 Ni     0.000000    0.000000   14.064546    ( 0.0000,  0.0000,  0.0000)
  19 Ni     2.489016    0.000000   14.064546    ( 0.0000,  0.0000,  0.0000)
  20 Ni     4.978032    0.000000   14.064546    ( 0.0000,  0.0000,  0.0000)
  21 Ni     1.244508    2.155551   14.064546    ( 0.0000,  0.0000,  0.0000)
  22 Ni     3.733524    2.155551   14.064546    ( 0.0000,  0.0000,  0.0000)
  23 Ni     6.222540    2.155551   14.064546    ( 0.0000,  0.0000,  0.0000)
  24 Ni     2.489016    4.311102   14.064546    ( 0.0000,  0.0000,  0.0000)
  25 Ni     4.978032    4.311102   14.064546    ( 0.0000,  0.0000,  0.0000)
  26 Ni     7.467048    4.311102   14.064546    ( 0.0000,  0.0000,  0.0000)
  27 H      3.733524    3.233326   18.064546    ( 0.0000,  0.0000,  0.0000)
  28 H      3.733524    3.233326   18.804546    ( 0.0000,  0.0000,  0.0000)

Unit cell:
           periodic     x           y           z      points  spacing
  1. axis:    yes    7.467048    0.000000    0.000000    35     0.1848
  2. axis:    yes    3.733524    6.466653    0.000000    35     0.1848
  3. axis:    no     0.000000    0.000000   24.064546   112     0.2149

  Lengths:   7.467048   7.467048  24.064546
  Angles:   90.000000  90.000000  60.000000

Effective grid spacing dv^(1/3) = 0.2038

     iter     time        total  log10-change:
                         energy   eigst   dens
iter:   1 14:26:23  -194.439663
iter:   2 14:26:36  -191.962812   -0.37  -1.53
iter:   3 14:26:51  -192.097877   -0.82  -1.63
iter:   4 14:27:12  -198.307000   -1.10  -1.75
iter:   5 14:27:30  -194.636853   -1.44  -1.74
iter:   6 14:27:46  -192.662261   -1.97  -1.79
iter:   7 14:28:07  -194.541392   -1.40  -1.90
iter:   8 14:28:29  -193.190293   -1.91  -1.99
iter:   9 14:28:58  -189.000654   -2.59  -2.03
iter:  10 14:29:20  -188.717780   -3.16  -2.21
iter:  11 14:29:33  -188.629395   -2.71  -2.27
iter:  12 14:29:46  -188.665454c  -2.93  -2.67
iter:  13 14:29:59  -188.675309c  -3.76  -2.63
iter:  14 14:30:14  -188.977198   -3.59  -2.62
iter:  15 14:30:27  -188.694217   -3.57  -2.50
iter:  16 14:30:41  -188.638298   -4.19  -2.59
iter:  17 14:30:54  -188.627121c  -4.43  -2.67
iter:  18 14:31:09  -188.618523c  -3.88  -2.73
iter:  19 14:31:22  -188.681829c  -3.78  -2.87
iter:  20 14:31:36  -189.081671   -3.48  -2.77
iter:  21 14:31:49  -188.692842   -3.57  -2.52
iter:  22 14:32:02  -188.695379   -3.37  -2.89
iter:  23 14:32:17  -188.635600c  -4.34  -2.92
iter:  24 14:32:30  -188.629443c  -4.51  -3.28
iter:  25 14:32:43  -188.629667c  -4.96  -3.55
iter:  26 14:32:56  -188.631577c  -5.27  -3.57
iter:  27 14:33:09  -188.627836c  -5.75  -3.46
iter:  28 14:33:23  -188.627685c  -6.65  -3.69
iter:  29 14:33:36  -188.628278c  -6.34  -3.74
iter:  30 14:33:49  -188.628511c  -5.75  -3.80
iter:  31 14:34:02  -188.628805c  -6.09  -3.91
iter:  32 14:34:16  -188.629463c  -6.10  -3.96
iter:  33 14:34:30  -188.629113c  -5.97  -3.85
iter:  34 14:34:43  -188.628747c  -6.23  -3.96
iter:  35 14:34:56  -188.628740c  -6.71  -4.29c
iter:  36 14:35:09  -188.628702c  -7.43c -4.44c

Converged after 36 iterations.

Dipole moment: (-0.268199, -0.150245, -0.000543) |e|*Ang

Energy contributions relative to reference atoms: (reference = -1116960.938401)

Kinetic:       +159.037203
Potential:     -117.492185
External:        +0.000000
XC:            -232.278456
Entropy (-ST):   -2.740905
Local:           +3.475189
SIC:             +0.000000
--------------------------
Free energy:   -189.999155
Extrapolated:  -188.628702

Showing all kpts
 Kpt  Band  Eigenvalues  Occupancy
  0   215     -1.76751    1.30715
  0   216     -1.76656    1.30284
  0   217     -1.72452    1.10211
  0   218     -1.72211    1.09016

  1   215     -1.74156    1.18548
  1   216     -1.72997    1.12897
  1   217     -1.72452    1.10208
  1   218     -1.72368    1.09795


Fermi level: -1.70403

No gap
No difference between direct/indirect transitions
Timing:                              incl.     excl.
-----------------------------------------------------------
Hamiltonian:                         1.351     0.003   0.0% |
 Atomic:                             0.667     0.002   0.0% |
  XC Correction:                     0.664     0.664   0.1% |
 Calculate atomic Hamiltonians:      0.362     0.362   0.1% |
 Communicate:                        0.000     0.000   0.0% |
 Initialize Hamiltonian:             0.001     0.001   0.0% |
 Poisson:                            0.004     0.004   0.0% |
 XC 3D grid:                         0.314     0.314   0.1% |
LCAO initialization:                41.218     0.039   0.0% |
 LCAO eigensolver:                   3.480     0.000   0.0% |
  Calculate projections:             0.007     0.007   0.0% |
  DenseAtomicCorrection:             0.087     0.087   0.0% |
  Distribute overlap matrix:         0.001     0.001   0.0% |
  Orbital Layouts:                   0.074     0.074   0.0% |
  Potential matrix:                  3.275     3.275   0.6% |
  Sum over cells:                    0.036     0.036   0.0% |
 LCAO to grid:                      36.733    36.733   6.3% |--|
 Set positions (LCAO WFS):           0.965     0.298   0.1% |
  Basic WFS set positions:           0.001     0.001   0.0% |
  Basis functions set positions:     0.000     0.000   0.0% |
  P tci:                             0.449     0.449   0.1% |
  ST tci:                            0.197     0.197   0.0% |
  mktci:                             0.019     0.019   0.0% |
PWDescriptor:                        0.012     0.012   0.0% |
SCF-cycle:                         540.481     0.050   0.0% |
 Davidson:                         443.035    90.436  15.5% |-----|
  Apply H:                          62.756    60.936  10.4% |---|
   HMM T:                            1.821     1.821   0.3% |
  Subspace diag:                    84.763     0.010   0.0% |
   calc_h_matrix:                   68.730    12.182   2.1% ||
    Apply H:                        56.548    54.784   9.4% |---|
     HMM T:                          1.764     1.764   0.3% |
   diagonalize:                      4.865     4.865   0.8% |
   rotate_psi:                      11.158    11.158   1.9% ||
  calc. matrices:                  166.555    53.333   9.1% |---|
   Apply H:                        113.222   109.758  18.8% |-------|
    HMM T:                           3.463     3.463   0.6% |
  diagonalize:                      16.488    16.488   2.8% ||
  rotate_psi:                       22.037    22.037   3.8% |-|
 Density:                           45.958     0.001   0.0% |
  Atomic density matrices:           0.185     0.185   0.0% |
  Mix:                              18.605    18.605   3.2% ||
  Multipole moments:                 0.014     0.014   0.0% |
  Pseudo density:                   27.155    26.916   4.6% |-|
   Symmetrize density:               0.238     0.238   0.0% |
 Hamiltonian:                       50.720     0.100   0.0% |
  Atomic:                           22.959     0.069   0.0% |
   XC Correction:                   22.891    22.891   3.9% |-|
  Calculate atomic Hamiltonians:    15.441    15.441   2.6% ||
  Communicate:                       0.000     0.000   0.0% |
  Poisson:                           0.128     0.128   0.0% |
  XC 3D grid:                       12.092    12.092   2.1% ||
 Orthonormalize:                     0.717     0.000   0.0% |
  calc_s_matrix:                     0.083     0.083   0.0% |
  inverse-cholesky:                  0.008     0.008   0.0% |
  projections:                       0.342     0.342   0.1% |
  rotate_psi_s:                      0.284     0.284   0.0% |
Set symmetry:                        0.001     0.001   0.0% |
Other:                               1.922     1.922   0.3% |
-----------------------------------------------------------
Total:                                       584.985 100.0%

Memory usage: 1.11 GiB
Date: Sat Mar 29 14:35:10 2025
