
  ___ ___ ___ _ _ _  
 |   |   |_  | | | | 
 | | | | | . | | | | 
 |__ |  _|___|_____|  24.6.0
 |___|_|             

User:   kerem@DESKTOP-CMKTO4T
Date:   Sat Mar 29 12:49:04 2025
Arch:   x86_64
Pid:    640
CWD:    /home/kerem
Python: 3.12.9
gpaw:   /home/kerem/miniconda3/envs/gpaw-env/lib/python3.12/site-packages/gpaw
_gpaw:  /home/kerem/miniconda3/envs/gpaw-env/lib/python3.12/site-packages/
        _gpaw.cpython-312-x86_64-linux-gnu.so
ase:    /home/kerem/miniconda3/envs/gpaw-env/lib/python3.12/site-packages/ase (version 3.24.0)
numpy:  /home/kerem/miniconda3/envs/gpaw-env/lib/python3.12/site-packages/numpy (version 1.26.4)
scipy:  /home/kerem/miniconda3/envs/gpaw-env/lib/python3.12/site-packages/scipy (version 1.15.2)
libxc:  6.2.2
units:  Angstrom and eV
cores: 1
OpenMP: True
OMP_NUM_THREADS: 1

Input parameters:
  kpts: [2 2 1]
  mode: {ecut: 400.0,
         name: pw}
  xc: PBE

System changes: positions, numbers, cell, pbc, initial_charges, initial_magmoms 

Initialize ...

species:
  Ni:
    name: Nickel
    id: 0d9f38a9d6e76a2886f07bb4381f212b
    Z: 28.0
    valence: 16
    core: 12
    charge: 0.0
    file: /home/kerem/miniconda3/envs/gpaw-env/share/gpaw/Ni.PBE.gz
    compensation charges: {type: gauss,
                           rc: 0.36,
                           lmax: 2}
    cutoffs: {filter: 2.14,
              core: 1.98}
    projectors:
      #              energy  rcut
      - 4s(2.00)    -5.642   1.164
      - 3p(6.00)   -71.394   1.207
      - 4p(0.00)    -1.226   1.207
      - 3d(8.00)    -8.875   1.138
      -  s          21.570   1.164
      -  d          18.337   1.138
  
    # Using partial waves for Ni as LCAO basis

  H:
    name: Hydrogen
    id: d65de229564ff8ea4db303e23b6d1ecf
    Z: 1.0
    valence: 1
    core: 0
    charge: 0.0
    file: /home/kerem/miniconda3/envs/gpaw-env/share/gpaw/H.PBE.gz
    compensation charges: {type: gauss,
                           rc: 0.15,
                           lmax: 2}
    cutoffs: {filter: 0.85,
              core: 0.53}
    projectors:
      #              energy  rcut
      - 1s(1.00)    -6.494   0.476
      -  s          20.717   0.476
      -  p           0.000   0.476
  
    # Using partial waves for H as LCAO basis

Reference energy: -1116960.938401  # eV

Spin-paired calculation

Convergence criteria:
 Maximum [total energy] change in last 3 cyles: 0.0005 eV / valence electron
 Maximum integral of absolute [dens]ity change: 0.0001 electrons / valence electron
 Maximum integral of absolute [eigenst]ate change: 4e-08 eV^2 / valence electron
 Maximum number of scf [iter]ations: 333
 (Square brackets indicate name in SCF output, whereas a 'c' in
 the SCF output indicates the quantity has converged.)

Symmetries present (total): 2

  ( 1  0  0)  (-1  0  0)
  ( 0  1  0)  (-1  1  0)
  ( 0  0  1)  ( 0  0  1)
Note: your k-points are not as symmetric as your crystal!

4 k-points: 2 x 2 x 1 Monkhorst-Pack grid
2 k-points in the irreducible part of the Brillouin zone
       k-points in crystal coordinates                weights
   0:     0.25000000   -0.25000000    0.00000000          2/4
   1:     0.25000000    0.25000000    0.00000000          2/4

Wave functions: Plane wave expansion
  Cutoff energy: 400.000 eV
  Number of coefficients (min, max): 21105, 21124
  Pulay-stress correction: 0.000000 eV/Ang^3 (de/decut=0.000000)
  Using FFTW library
  ScaLapack parameters: grid=1x1, blocksize=None
  Wavefunction extrapolation:
    Improved wavefunction reuse through dual PAW basis 

Occupation numbers: Fermi-Dirac:
  width: 0.1000  # eV
 

Eigensolver
   Davidson(niter=2) 

Densities:
  Coarse grid: 35*35*112 grid
  Fine grid: 70*70*224 grid
  Total Charge: 0.000000 

Density mixing:
  Method: separate
  Backend: pulay
  Linear mixing parameter: 0.05
  old densities: 5
  Damping of long wavelength oscillations: 50 

Hamiltonian:
  XC and Coulomb potentials evaluated on a 70*70*224 grid
  Using the PBE Exchange-Correlation functional
  External potential:
    NoExternalPotential
 

XC parameters: PBE with 2 nearest neighbor stencil

Memory estimate:
  Process memory now: 1104.80 MiB
  Calculator: 368.46 MiB
    Density: 65.71 MiB
      Arrays: 27.22 MiB
      Localized functions: 28.02 MiB
      Mixer: 10.47 MiB
    Hamiltonian: 18.48 MiB
      Arrays: 17.79 MiB
      XC: 0.00 MiB
      Poisson: 0.00 MiB
      vbar: 0.68 MiB
    Wavefunctions: 284.27 MiB
      Arrays psit_nG: 170.83 MiB
      Eigensolver: 97.75 MiB
      Projections: 4.01 MiB
      Projectors: 5.80 MiB
      PW-descriptor: 5.88 MiB

Total number of cores used: 1

Number of atoms: 29
Number of atomic orbitals: 326
Number of bands in calculation: 265
Number of valence electrons: 434
Bands to converge: occupied

... initialized

Initializing position-dependent things.

Density initialized from atomic densities
Creating initial wave functions:
  265 bands from LCAO basis set

                                         
                                         
                                         
                                         
                                         
                  H                      
                  H                      
                                         
                Ni    Ni    Ni           
           Ni    NNi   NNi   Ni          
       Ni    Ni    Ni                    
            Ni    Ni    Ni               
        Ni    Ni   NNi   Ni    Ni        
                                         
               Ni    Ni    Ni            
           Ni    Ni    Ni                
                                         
                                         
                                         
                                         

Positions:
   0 Ni     1.244508    0.718517   10.000000    ( 0.0000,  0.0000,  0.0000)
   1 Ni     3.733524    0.718517   10.000000    ( 0.0000,  0.0000,  0.0000)
   2 Ni     6.222540    0.718517   10.000000    ( 0.0000,  0.0000,  0.0000)
   3 Ni     2.489016    2.874068   10.000000    ( 0.0000,  0.0000,  0.0000)
   4 Ni     4.978032    2.874068   10.000000    ( 0.0000,  0.0000,  0.0000)
   5 Ni     7.467048    2.874068   10.000000    ( 0.0000,  0.0000,  0.0000)
   6 Ni     3.733524    5.029619   10.000000    ( 0.0000,  0.0000,  0.0000)
   7 Ni     6.222540    5.029619   10.000000    ( 0.0000,  0.0000,  0.0000)
   8 Ni     8.711556    5.029619   10.000000    ( 0.0000,  0.0000,  0.0000)
   9 Ni     0.000000    1.437034   12.032273    ( 0.0000,  0.0000,  0.0000)
  10 Ni     2.489016    1.437034   12.032273    ( 0.0000,  0.0000,  0.0000)
  11 Ni     4.978032    1.437034   12.032273    ( 0.0000,  0.0000,  0.0000)
  12 Ni     1.244508    3.592585   12.032273    ( 0.0000,  0.0000,  0.0000)
  13 Ni     3.733524    3.592585   12.032273    ( 0.0000,  0.0000,  0.0000)
  14 Ni     6.222540    3.592585   12.032273    ( 0.0000,  0.0000,  0.0000)
  15 Ni     2.489016    5.748136   12.032273    ( 0.0000,  0.0000,  0.0000)
  16 Ni     4.978032    5.748136   12.032273    ( 0.0000,  0.0000,  0.0000)
  17 Ni     7.467048    5.748136   12.032273    ( 0.0000,  0.0000,  0.0000)
  18 Ni     0.000000    0.000000   14.064546    ( 0.0000,  0.0000,  0.0000)
  19 Ni     2.489016    0.000000   14.064546    ( 0.0000,  0.0000,  0.0000)
  20 Ni     4.978032    0.000000   14.064546    ( 0.0000,  0.0000,  0.0000)
  21 Ni     1.244508    2.155551   14.064546    ( 0.0000,  0.0000,  0.0000)
  22 Ni     3.733524    2.155551   14.064546    ( 0.0000,  0.0000,  0.0000)
  23 Ni     6.222540    2.155551   14.064546    ( 0.0000,  0.0000,  0.0000)
  24 Ni     2.489016    4.311102   14.064546    ( 0.0000,  0.0000,  0.0000)
  25 Ni     4.978032    4.311102   14.064546    ( 0.0000,  0.0000,  0.0000)
  26 Ni     7.467048    4.311102   14.064546    ( 0.0000,  0.0000,  0.0000)
  27 H      3.733524    3.233326   15.964546    ( 0.0000,  0.0000,  0.0000)
  28 H      3.733524    3.233326   16.704546    ( 0.0000,  0.0000,  0.0000)

Unit cell:
           periodic     x           y           z      points  spacing
  1. axis:    yes    7.467048    0.000000    0.000000    35     0.1848
  2. axis:    yes    3.733524    6.466653    0.000000    35     0.1848
  3. axis:    no     0.000000    0.000000   24.064546   112     0.2149

  Lengths:   7.467048   7.467048  24.064546
  Angles:   90.000000  90.000000  60.000000

Effective grid spacing dv^(1/3) = 0.2038

     iter     time        total  log10-change:
                         energy   eigst   dens
iter:   1 12:50:09  -194.052265
iter:   2 12:50:24  -191.648634   -0.36  -1.54
iter:   3 12:50:39  -192.887452   -0.82  -1.63
iter:   4 12:50:55  -212.917288   -1.01  -1.75
iter:   5 12:51:10  -192.590518   -1.50  -1.62
iter:   6 12:51:26  -189.279562   -1.98  -1.83
iter:   7 12:51:41  -192.347988   -1.59  -1.94
iter:   8 12:51:56  -189.590114   -2.33  -1.99
iter:   9 12:52:12  -188.917614   -2.73  -2.13
iter:  10 12:52:28  -189.561185   -2.52  -2.22
iter:  11 12:52:43  -188.650970   -2.91  -2.24
iter:  12 12:52:58  -188.770186   -2.77  -2.40
iter:  13 12:53:14  -188.567824c  -3.13  -2.57
iter:  14 12:53:34  -188.557114c  -3.49  -2.71
iter:  15 12:53:50  -188.535723c  -3.76  -2.78
iter:  16 12:54:06  -188.691655c  -3.67  -2.81
iter:  17 12:54:21  -188.508460c  -4.02  -2.63
iter:  18 12:54:37  -188.506339c  -4.28  -2.93
iter:  19 12:54:53  -188.503967c  -4.58  -3.04
iter:  20 12:55:14  -188.507071c  -4.36  -3.12
iter:  21 12:55:30  -188.507359c  -4.79  -3.18
iter:  22 12:55:45  -188.521750c  -4.57  -3.22
iter:  23 12:56:00  -188.504262c  -4.73  -3.10
iter:  24 12:56:16  -188.502120c  -5.26  -3.30
iter:  25 12:56:36  -188.500798c  -5.62  -3.41
iter:  26 12:56:52  -188.501822c  -5.66  -3.45
iter:  27 12:57:08  -188.502987c  -5.29  -3.51
iter:  28 12:57:23  -188.518542c  -4.76  -3.49
iter:  29 12:57:39  -188.500403c  -5.10  -3.19
iter:  30 12:57:54  -188.500213c  -6.16  -3.69
iter:  31 12:58:15  -188.500046c  -6.03  -3.75
iter:  32 12:58:31  -188.499994c  -6.23  -3.80
iter:  33 12:58:52  -188.499950c  -6.22  -3.85
iter:  34 12:59:09  -188.500560c  -6.06  -3.90
iter:  35 12:59:24  -188.500307c  -5.95  -3.78
iter:  36 12:59:39  -188.499957c  -6.51  -3.86
iter:  37 13:00:01  -188.499771c  -6.30  -4.00c
iter:  38 13:00:17  -188.499680c  -6.90  -4.04c
iter:  39 13:00:32  -188.499716c  -7.42c -4.11c

Converged after 39 iterations.

Dipole moment: (-0.350745, -0.153179, 0.102154) |e|*Ang

Energy contributions relative to reference atoms: (reference = -1116960.938401)

Kinetic:       +160.320354
Potential:     -117.594725
External:        +0.000000
XC:            -233.288893
Entropy (-ST):   -2.726732
Local:           +3.426914
SIC:             +0.000000
--------------------------
Free energy:   -189.863082
Extrapolated:  -188.499716

Showing all kpts
 Kpt  Band  Eigenvalues  Occupancy
  0   215     -1.67064    1.31931
  0   216     -1.66813    1.30803
  0   217     -1.62560    1.10530
  0   218     -1.62323    1.09357

  1   215     -1.64287    1.18973
  1   216     -1.63120    1.13291
  1   217     -1.62671    1.11081
  1   218     -1.62508    1.10272


Fermi level: -1.60446

No gap
No difference between direct/indirect transitions
Timing:                              incl.     excl.
-----------------------------------------------------------
Hamiltonian:                         1.303     0.003   0.0% |
 Atomic:                             0.612     0.002   0.0% |
  XC Correction:                     0.610     0.610   0.1% |
 Calculate atomic Hamiltonians:      0.289     0.289   0.0% |
 Communicate:                        0.000     0.000   0.0% |
 Initialize Hamiltonian:             0.001     0.001   0.0% |
 Poisson:                            0.004     0.004   0.0% |
 XC 3D grid:                         0.395     0.395   0.1% |
LCAO initialization:                45.081     0.037   0.0% |
 LCAO eigensolver:                   3.087     0.000   0.0% |
  Calculate projections:             0.006     0.006   0.0% |
  DenseAtomicCorrection:             0.008     0.008   0.0% |
  Distribute overlap matrix:         0.001     0.001   0.0% |
  Orbital Layouts:                   0.064     0.064   0.0% |
  Potential matrix:                  2.998     2.998   0.4% |
  Sum over cells:                    0.009     0.009   0.0% |
 LCAO to grid:                      41.189    41.189   6.0% |-|
 Set positions (LCAO WFS):           0.768     0.135   0.0% |
  Basic WFS set positions:           0.001     0.001   0.0% |
  Basis functions set positions:     0.000     0.000   0.0% |
  P tci:                             0.425     0.425   0.1% |
  ST tci:                            0.194     0.194   0.0% |
  mktci:                             0.013     0.013   0.0% |
PWDescriptor:                        0.012     0.012   0.0% |
SCF-cycle:                         640.691     0.059   0.0% |
 Davidson:                         530.679   108.745  15.8% |-----|
  Apply H:                          72.486    70.295  10.2% |---|
   HMM T:                            2.191     2.191   0.3% |
  Subspace diag:                   100.011     0.012   0.0% |
   calc_h_matrix:                   78.534    14.572   2.1% ||
    Apply H:                        63.962    61.871   9.0% |---|
     HMM T:                          2.090     2.090   0.3% |
   diagonalize:                      8.431     8.431   1.2% |
   rotate_psi:                      13.035    13.035   1.9% ||
  calc. matrices:                  202.613    68.309   9.9% |---|
   Apply H:                        134.304   130.080  18.9% |-------|
    HMM T:                           4.223     4.223   0.6% |
  diagonalize:                      19.192    19.192   2.8% ||
  rotate_psi:                       27.632    27.632   4.0% |-|
 Density:                           52.306     0.001   0.0% |
  Atomic density matrices:           0.183     0.183   0.0% |
  Mix:                              21.340    21.340   3.1% ||
  Multipole moments:                 0.014     0.014   0.0% |
  Pseudo density:                   30.768    30.524   4.4% |-|
   Symmetrize density:               0.244     0.244   0.0% |
 Hamiltonian:                       56.684     0.103   0.0% |
  Atomic:                           24.741     0.072   0.0% |
   XC Correction:                   24.669    24.669   3.6% ||
  Calculate atomic Hamiltonians:    17.878    17.878   2.6% ||
  Communicate:                       0.000     0.000   0.0% |
  Poisson:                           0.144     0.144   0.0% |
  XC 3D grid:                       13.819    13.819   2.0% ||
 Orthonormalize:                     0.963     0.001   0.0% |
  calc_s_matrix:                     0.124     0.124   0.0% |
  inverse-cholesky:                  0.018     0.018   0.0% |
  projections:                       0.500     0.500   0.1% |
  rotate_psi_s:                      0.321     0.321   0.0% |
Set symmetry:                        0.001     0.001   0.0% |
Other:                               1.314     1.314   0.2% |
-----------------------------------------------------------
Total:                                       688.402 100.0%

Memory usage: 1.08 GiB
Date: Sat Mar 29 13:00:32 2025
