
  ___ ___ ___ _ _ _  
 |   |   |_  | | | | 
 | | | | | . | | | | 
 |__ |  _|___|_____|  24.6.0
 |___|_|             

User:   kerem@DESKTOP-CMKTO4T
Date:   Sat Mar 29 18:26:12 2025
Arch:   x86_64
Pid:    1486
CWD:    /home/kerem
Python: 3.12.9
gpaw:   /home/kerem/miniconda3/envs/gpaw-env/lib/python3.12/site-packages/gpaw
_gpaw:  /home/kerem/miniconda3/envs/gpaw-env/lib/python3.12/site-packages/
        _gpaw.cpython-312-x86_64-linux-gnu.so
ase:    /home/kerem/miniconda3/envs/gpaw-env/lib/python3.12/site-packages/ase (version 3.24.0)
numpy:  /home/kerem/miniconda3/envs/gpaw-env/lib/python3.12/site-packages/numpy (version 1.26.4)
scipy:  /home/kerem/miniconda3/envs/gpaw-env/lib/python3.12/site-packages/scipy (version 1.15.2)
libxc:  6.2.2
units:  Angstrom and eV
cores: 1
OpenMP: True
OMP_NUM_THREADS: 1

Input parameters:
  kpts: [2 2 1]
  mode: {ecut: 400.0,
         name: pw}
  xc: PBE

System changes: positions, numbers, cell, pbc, initial_charges, initial_magmoms 

Initialize ...

species:
  Ni:
    name: Nickel
    id: 0d9f38a9d6e76a2886f07bb4381f212b
    Z: 28.0
    valence: 16
    core: 12
    charge: 0.0
    file: /home/kerem/miniconda3/envs/gpaw-env/share/gpaw/Ni.PBE.gz
    compensation charges: {type: gauss,
                           rc: 0.36,
                           lmax: 2}
    cutoffs: {filter: 2.14,
              core: 1.98}
    projectors:
      #              energy  rcut
      - 4s(2.00)    -5.642   1.164
      - 3p(6.00)   -71.394   1.207
      - 4p(0.00)    -1.226   1.207
      - 3d(8.00)    -8.875   1.138
      -  s          21.570   1.164
      -  d          18.337   1.138
  
    # Using partial waves for Ni as LCAO basis

  H:
    name: Hydrogen
    id: d65de229564ff8ea4db303e23b6d1ecf
    Z: 1.0
    valence: 1
    core: 0
    charge: 0.0
    file: /home/kerem/miniconda3/envs/gpaw-env/share/gpaw/H.PBE.gz
    compensation charges: {type: gauss,
                           rc: 0.15,
                           lmax: 2}
    cutoffs: {filter: 0.85,
              core: 0.53}
    projectors:
      #              energy  rcut
      - 1s(1.00)    -6.494   0.476
      -  s          20.717   0.476
      -  p           0.000   0.476
  
    # Using partial waves for H as LCAO basis

Reference energy: -1116960.938401  # eV

Spin-paired calculation

Convergence criteria:
 Maximum [total energy] change in last 3 cyles: 0.0005 eV / valence electron
 Maximum integral of absolute [dens]ity change: 0.0001 electrons / valence electron
 Maximum integral of absolute [eigenst]ate change: 4e-08 eV^2 / valence electron
 Maximum number of scf [iter]ations: 333
 (Square brackets indicate name in SCF output, whereas a 'c' in
 the SCF output indicates the quantity has converged.)

Symmetries present (total): 2

  ( 1  0  0)  (-1  0  0)
  ( 0  1  0)  (-1  1  0)
  ( 0  0  1)  ( 0  0  1)
Note: your k-points are not as symmetric as your crystal!

4 k-points: 2 x 2 x 1 Monkhorst-Pack grid
2 k-points in the irreducible part of the Brillouin zone
       k-points in crystal coordinates                weights
   0:     0.25000000   -0.25000000    0.00000000          2/4
   1:     0.25000000    0.25000000    0.00000000          2/4

Wave functions: Plane wave expansion
  Cutoff energy: 400.000 eV
  Number of coefficients (min, max): 21105, 21124
  Pulay-stress correction: 0.000000 eV/Ang^3 (de/decut=0.000000)
  Using FFTW library
  ScaLapack parameters: grid=1x1, blocksize=None
  Wavefunction extrapolation:
    Improved wavefunction reuse through dual PAW basis 

Occupation numbers: Fermi-Dirac:
  width: 0.1000  # eV
 

Eigensolver
   Davidson(niter=2) 

Densities:
  Coarse grid: 35*35*112 grid
  Fine grid: 70*70*224 grid
  Total Charge: 0.000000 

Density mixing:
  Method: separate
  Backend: pulay
  Linear mixing parameter: 0.05
  old densities: 5
  Damping of long wavelength oscillations: 50 

Hamiltonian:
  XC and Coulomb potentials evaluated on a 70*70*224 grid
  Using the PBE Exchange-Correlation functional
  External potential:
    NoExternalPotential
 

XC parameters: PBE with 2 nearest neighbor stencil

Memory estimate:
  Process memory now: 231.97 MiB
  Calculator: 368.46 MiB
    Density: 65.71 MiB
      Arrays: 27.22 MiB
      Localized functions: 28.02 MiB
      Mixer: 10.47 MiB
    Hamiltonian: 18.48 MiB
      Arrays: 17.79 MiB
      XC: 0.00 MiB
      Poisson: 0.00 MiB
      vbar: 0.68 MiB
    Wavefunctions: 284.27 MiB
      Arrays psit_nG: 170.83 MiB
      Eigensolver: 97.75 MiB
      Projections: 4.01 MiB
      Projectors: 5.80 MiB
      PW-descriptor: 5.88 MiB

Total number of cores used: 1

Number of atoms: 29
Number of atomic orbitals: 326
Number of bands in calculation: 265
Number of valence electrons: 434
Bands to converge: occupied

... initialized

Initializing position-dependent things.

Density initialized from atomic densities
Creating initial wave functions:
  265 bands from LCAO basis set

                                         
                                         
                                         
                                         
                                         
                  H                      
                  H                      
                                         
                                         
                                         
                                         
                                         
                                         
                                         
                                         
                                         
                                         
                Ni    Ni    Ni           
           Ni    NNi   NNi   Ni          
       Ni    Ni    Ni                    
            Ni    Ni    Ni               
        Ni    Ni   NNi   Ni    Ni        
                                         
               Ni    Ni    Ni            
           Ni    Ni    Ni                
                                         
                                         
                                         
                                         

Positions:
   0 Ni     1.244508    0.718517   10.000000    ( 0.0000,  0.0000,  0.0000)
   1 Ni     3.733524    0.718517   10.000000    ( 0.0000,  0.0000,  0.0000)
   2 Ni     6.222540    0.718517   10.000000    ( 0.0000,  0.0000,  0.0000)
   3 Ni     2.489016    2.874068   10.000000    ( 0.0000,  0.0000,  0.0000)
   4 Ni     4.978032    2.874068   10.000000    ( 0.0000,  0.0000,  0.0000)
   5 Ni     7.467048    2.874068   10.000000    ( 0.0000,  0.0000,  0.0000)
   6 Ni     3.733524    5.029619   10.000000    ( 0.0000,  0.0000,  0.0000)
   7 Ni     6.222540    5.029619   10.000000    ( 0.0000,  0.0000,  0.0000)
   8 Ni     8.711556    5.029619   10.000000    ( 0.0000,  0.0000,  0.0000)
   9 Ni     0.000000    1.437034   12.032273    ( 0.0000,  0.0000,  0.0000)
  10 Ni     2.489016    1.437034   12.032273    ( 0.0000,  0.0000,  0.0000)
  11 Ni     4.978032    1.437034   12.032273    ( 0.0000,  0.0000,  0.0000)
  12 Ni     1.244508    3.592585   12.032273    ( 0.0000,  0.0000,  0.0000)
  13 Ni     3.733524    3.592585   12.032273    ( 0.0000,  0.0000,  0.0000)
  14 Ni     6.222540    3.592585   12.032273    ( 0.0000,  0.0000,  0.0000)
  15 Ni     2.489016    5.748136   12.032273    ( 0.0000,  0.0000,  0.0000)
  16 Ni     4.978032    5.748136   12.032273    ( 0.0000,  0.0000,  0.0000)
  17 Ni     7.467048    5.748136   12.032273    ( 0.0000,  0.0000,  0.0000)
  18 Ni     0.000000    0.000000   14.064546    ( 0.0000,  0.0000,  0.0000)
  19 Ni     2.489016    0.000000   14.064546    ( 0.0000,  0.0000,  0.0000)
  20 Ni     4.978032    0.000000   14.064546    ( 0.0000,  0.0000,  0.0000)
  21 Ni     1.244508    2.155551   14.064546    ( 0.0000,  0.0000,  0.0000)
  22 Ni     3.733524    2.155551   14.064546    ( 0.0000,  0.0000,  0.0000)
  23 Ni     6.222540    2.155551   14.064546    ( 0.0000,  0.0000,  0.0000)
  24 Ni     2.489016    4.311102   14.064546    ( 0.0000,  0.0000,  0.0000)
  25 Ni     4.978032    4.311102   14.064546    ( 0.0000,  0.0000,  0.0000)
  26 Ni     7.467048    4.311102   14.064546    ( 0.0000,  0.0000,  0.0000)
  27 H      3.733524    3.233326   23.064546    ( 0.0000,  0.0000,  0.0000)
  28 H      3.733524    3.233326   23.804546    ( 0.0000,  0.0000,  0.0000)

Unit cell:
           periodic     x           y           z      points  spacing
  1. axis:    yes    7.467048    0.000000    0.000000    35     0.1848
  2. axis:    yes    3.733524    6.466653    0.000000    35     0.1848
  3. axis:    no     0.000000    0.000000   24.064546   112     0.2149

  Lengths:   7.467048   7.467048  24.064546
  Angles:   90.000000  90.000000  60.000000

Effective grid spacing dv^(1/3) = 0.2038

     iter     time        total  log10-change:
                         energy   eigst   dens
iter:   1 18:27:06  -194.465955
iter:   2 18:27:19  -191.963879   -0.37  -1.53
iter:   3 18:27:34  -191.950987   -0.81  -1.63
iter:   4 18:27:46  -190.116076   -1.15  -1.76
iter:   5 18:28:01  -195.809686   -1.61  -1.85
iter:   6 18:28:16  -189.791073   -1.87  -1.82
iter:   7 18:28:29  -188.840446   -1.82  -1.95
iter:   8 18:28:43  -188.895748   -2.42  -2.21
iter:   9 18:28:56  -190.014278   -2.49  -2.20
iter:  10 18:29:11  -191.915676   -1.97  -2.21
iter:  11 18:29:24  -188.764532   -2.58  -2.08
iter:  12 18:29:37  -188.688367   -2.95  -2.64
iter:  13 18:29:52  -188.650298c  -4.07  -2.62
iter:  14 18:30:05  -188.619980c  -4.33  -2.68
iter:  15 18:30:20  -188.621388c  -3.75  -2.77
iter:  16 18:30:33  -188.853441   -3.66  -2.85
iter:  17 18:30:45  -188.663188   -3.46  -2.62
iter:  18 18:31:00  -188.630352   -3.98  -2.87
iter:  19 18:31:14  -188.631892c  -4.90  -3.10
iter:  20 18:31:28  -188.634096c  -4.61  -3.13
iter:  21 18:31:41  -188.630396c  -4.55  -3.18
iter:  22 18:31:54  -188.623337c  -5.25  -3.31
iter:  23 18:32:09  -188.623113c  -5.74  -3.50
iter:  24 18:32:22  -188.622016c  -6.01  -3.52
iter:  25 18:32:36  -188.621141c  -5.23  -3.65
iter:  26 18:32:49  -188.620495c  -5.75  -3.76
iter:  27 18:33:03  -188.620260c  -6.41  -3.84
iter:  28 18:33:16  -188.620136c  -6.38  -3.95
iter:  29 18:33:29  -188.620499c  -6.33  -4.01c
iter:  30 18:33:43  -188.619875c  -6.23  -3.89
iter:  31 18:33:56  -188.620016c  -6.71  -4.19c
iter:  32 18:34:10  -188.619838c  -6.69  -4.29c
iter:  33 18:34:23  -188.620071c  -6.46  -4.19c
iter:  34 18:34:36  -188.620090c  -6.52  -4.26c
iter:  35 18:34:50  -188.619934c  -6.98  -4.20c
iter:  36 18:35:03  -188.619943c  -7.65c -4.48c

Converged after 36 iterations.

Dipole moment: (-0.274636, -0.149339, 5.182135) |e|*Ang

Energy contributions relative to reference atoms: (reference = -1116960.938401)

Kinetic:       +160.183167
Potential:     -118.779604
External:        +0.000000
XC:            -232.205812
Entropy (-ST):   -2.741550
Local:           +3.553081
SIC:             +0.000000
--------------------------
Free energy:   -189.990718
Extrapolated:  -188.619943

Showing all kpts
 Kpt  Band  Eigenvalues  Occupancy
  0   215     -1.76689    1.30665
  0   216     -1.76596    1.30244
  0   217     -1.72400    1.10206
  0   218     -1.72158    1.09008

  1   215     -1.74098    1.18512
  1   216     -1.72949    1.12912
  1   217     -1.72397    1.10192
  1   218     -1.72317    1.09795


Fermi level: -1.70352

No gap
No difference between direct/indirect transitions
Timing:                              incl.     excl.
-----------------------------------------------------------
Hamiltonian:                         1.374     0.002   0.0% |
 Atomic:                             0.628     0.002   0.0% |
  XC Correction:                     0.626     0.626   0.1% |
 Calculate atomic Hamiltonians:      0.418     0.418   0.1% |
 Communicate:                        0.000     0.000   0.0% |
 Initialize Hamiltonian:             0.000     0.000   0.0% |
 Poisson:                            0.003     0.003   0.0% |
 XC 3D grid:                         0.323     0.323   0.1% |
LCAO initialization:                38.851     0.038   0.0% |
 LCAO eigensolver:                   4.825     0.001   0.0% |
  Calculate projections:             0.005     0.005   0.0% |
  DenseAtomicCorrection:             0.154     0.154   0.0% |
  Distribute overlap matrix:         0.001     0.001   0.0% |
  Orbital Layouts:                   0.066     0.066   0.0% |
  Potential matrix:                  4.534     4.534   0.9% |
  Sum over cells:                    0.065     0.065   0.0% |
 LCAO to grid:                      33.006    33.006   6.2% |-|
 Set positions (LCAO WFS):           0.982     0.327   0.1% |
  Basic WFS set positions:           0.001     0.001   0.0% |
  Basis functions set positions:     0.000     0.000   0.0% |
  P tci:                             0.468     0.468   0.1% |
  ST tci:                            0.174     0.174   0.0% |
  mktci:                             0.013     0.013   0.0% |
PWDescriptor:                        0.147     0.147   0.0% |
SCF-cycle:                         488.559     0.046   0.0% |
 Davidson:                         396.877    78.965  14.9% |-----|
  Apply H:                          51.006    49.499   9.3% |---|
   HMM T:                            1.507     1.507   0.3% |
  Subspace diag:                    76.658     0.009   0.0% |
   calc_h_matrix:                   63.706    11.332   2.1% ||
    Apply H:                        52.374    50.893   9.6% |---|
     HMM T:                          1.480     1.480   0.3% |
   diagonalize:                      2.713     2.713   0.5% |
   rotate_psi:                      10.229    10.229   1.9% ||
  calc. matrices:                  156.758    50.192   9.4% |---|
   Apply H:                        106.567   103.557  19.5% |-------|
    HMM T:                           3.010     3.010   0.6% |
  diagonalize:                      14.257    14.257   2.7% ||
  rotate_psi:                       19.233    19.233   3.6% ||
 Density:                           42.508     0.001   0.0% |
  Atomic density matrices:           0.166     0.166   0.0% |
  Mix:                              16.731    16.731   3.1% ||
  Multipole moments:                 0.013     0.013   0.0% |
  Pseudo density:                   25.598    25.383   4.8% |-|
   Symmetrize density:               0.215     0.215   0.0% |
 Hamiltonian:                       48.499     0.090   0.0% |
  Atomic:                           20.919     0.061   0.0% |
   XC Correction:                   20.858    20.858   3.9% |-|
  Calculate atomic Hamiltonians:    16.030    16.030   3.0% ||
  Communicate:                       0.000     0.000   0.0% |
  Poisson:                           0.124     0.124   0.0% |
  XC 3D grid:                       11.335    11.335   2.1% ||
 Orthonormalize:                     0.628     0.001   0.0% |
  calc_s_matrix:                     0.067     0.067   0.0% |
  inverse-cholesky:                  0.008     0.008   0.0% |
  projections:                       0.308     0.308   0.1% |
  rotate_psi_s:                      0.244     0.244   0.0% |
Set symmetry:                        0.001     0.001   0.0% |
Other:                               2.484     2.484   0.5% |
-----------------------------------------------------------
Total:                                       531.416 100.0%

Memory usage: 1000.92 MiB
Date: Sat Mar 29 18:35:03 2025
