
  ___ ___ ___ _ _ _  
 |   |   |_  | | | | 
 | | | | | . | | | | 
 |__ |  _|___|_____|  24.6.0
 |___|_|             

User:   kerem@DESKTOP-CMKTO4T
Date:   Sat Mar 29 12:41:48 2025
Arch:   x86_64
Pid:    640
CWD:    /home/kerem
Python: 3.12.9
gpaw:   /home/kerem/miniconda3/envs/gpaw-env/lib/python3.12/site-packages/gpaw
_gpaw:  /home/kerem/miniconda3/envs/gpaw-env/lib/python3.12/site-packages/
        _gpaw.cpython-312-x86_64-linux-gnu.so
ase:    /home/kerem/miniconda3/envs/gpaw-env/lib/python3.12/site-packages/ase (version 3.24.0)
numpy:  /home/kerem/miniconda3/envs/gpaw-env/lib/python3.12/site-packages/numpy (version 1.26.4)
scipy:  /home/kerem/miniconda3/envs/gpaw-env/lib/python3.12/site-packages/scipy (version 1.15.2)
libxc:  6.2.2
units:  Angstrom and eV
cores: 1
OpenMP: True
OMP_NUM_THREADS: 1

Input parameters:
  kpts: [2 2 1]
  mode: {ecut: 400.0,
         name: pw}
  xc: PBE

System changes: positions, numbers, cell, pbc, initial_charges, initial_magmoms 

Initialize ...

species:
  Ni:
    name: Nickel
    id: 0d9f38a9d6e76a2886f07bb4381f212b
    Z: 28.0
    valence: 16
    core: 12
    charge: 0.0
    file: /home/kerem/miniconda3/envs/gpaw-env/share/gpaw/Ni.PBE.gz
    compensation charges: {type: gauss,
                           rc: 0.36,
                           lmax: 2}
    cutoffs: {filter: 2.14,
              core: 1.98}
    projectors:
      #              energy  rcut
      - 4s(2.00)    -5.642   1.164
      - 3p(6.00)   -71.394   1.207
      - 4p(0.00)    -1.226   1.207
      - 3d(8.00)    -8.875   1.138
      -  s          21.570   1.164
      -  d          18.337   1.138
  
    # Using partial waves for Ni as LCAO basis

  H:
    name: Hydrogen
    id: d65de229564ff8ea4db303e23b6d1ecf
    Z: 1.0
    valence: 1
    core: 0
    charge: 0.0
    file: /home/kerem/miniconda3/envs/gpaw-env/share/gpaw/H.PBE.gz
    compensation charges: {type: gauss,
                           rc: 0.15,
                           lmax: 2}
    cutoffs: {filter: 0.85,
              core: 0.53}
    projectors:
      #              energy  rcut
      - 1s(1.00)    -6.494   0.476
      -  s          20.717   0.476
      -  p           0.000   0.476
  
    # Using partial waves for H as LCAO basis

Reference energy: -1116960.938401  # eV

Spin-paired calculation

Convergence criteria:
 Maximum [total energy] change in last 3 cyles: 0.0005 eV / valence electron
 Maximum integral of absolute [dens]ity change: 0.0001 electrons / valence electron
 Maximum integral of absolute [eigenst]ate change: 4e-08 eV^2 / valence electron
 Maximum number of scf [iter]ations: 333
 (Square brackets indicate name in SCF output, whereas a 'c' in
 the SCF output indicates the quantity has converged.)

Symmetries present (total): 2

  ( 1  0  0)  (-1  0  0)
  ( 0  1  0)  (-1  1  0)
  ( 0  0  1)  ( 0  0  1)
Note: your k-points are not as symmetric as your crystal!

4 k-points: 2 x 2 x 1 Monkhorst-Pack grid
2 k-points in the irreducible part of the Brillouin zone
       k-points in crystal coordinates                weights
   0:     0.25000000   -0.25000000    0.00000000          2/4
   1:     0.25000000    0.25000000    0.00000000          2/4

Wave functions: Plane wave expansion
  Cutoff energy: 400.000 eV
  Number of coefficients (min, max): 21105, 21124
  Pulay-stress correction: 0.000000 eV/Ang^3 (de/decut=0.000000)
  Using FFTW library
  ScaLapack parameters: grid=1x1, blocksize=None
  Wavefunction extrapolation:
    Improved wavefunction reuse through dual PAW basis 

Occupation numbers: Fermi-Dirac:
  width: 0.1000  # eV
 

Eigensolver
   Davidson(niter=2) 

Densities:
  Coarse grid: 35*35*112 grid
  Fine grid: 70*70*224 grid
  Total Charge: 0.000000 

Density mixing:
  Method: separate
  Backend: pulay
  Linear mixing parameter: 0.05
  old densities: 5
  Damping of long wavelength oscillations: 50 

Hamiltonian:
  XC and Coulomb potentials evaluated on a 70*70*224 grid
  Using the PBE Exchange-Correlation functional
  External potential:
    NoExternalPotential
 

XC parameters: PBE with 2 nearest neighbor stencil

Memory estimate:
  Process memory now: 1098.96 MiB
  Calculator: 368.46 MiB
    Density: 65.71 MiB
      Arrays: 27.22 MiB
      Localized functions: 28.02 MiB
      Mixer: 10.47 MiB
    Hamiltonian: 18.48 MiB
      Arrays: 17.79 MiB
      XC: 0.00 MiB
      Poisson: 0.00 MiB
      vbar: 0.68 MiB
    Wavefunctions: 284.27 MiB
      Arrays psit_nG: 170.83 MiB
      Eigensolver: 97.75 MiB
      Projections: 4.01 MiB
      Projectors: 5.80 MiB
      PW-descriptor: 5.88 MiB

Total number of cores used: 1

Number of atoms: 29
Number of atomic orbitals: 326
Number of bands in calculation: 265
Number of valence electrons: 434
Bands to converge: occupied

... initialized

Initializing position-dependent things.

Density initialized from atomic densities
Creating initial wave functions:
  265 bands from LCAO basis set

                                         
                                         
                                         
                                         
                                         
                  H                      
                  H                      
                                         
                Ni    Ni    Ni           
           Ni    NNi   NNi   Ni          
       Ni    Ni    Ni                    
            Ni    Ni    Ni               
        Ni    Ni   NNi   Ni    Ni        
                                         
               Ni    Ni    Ni            
           Ni    Ni    Ni                
                                         
                                         
                                         
                                         

Positions:
   0 Ni     1.244508    0.718517   10.000000    ( 0.0000,  0.0000,  0.0000)
   1 Ni     3.733524    0.718517   10.000000    ( 0.0000,  0.0000,  0.0000)
   2 Ni     6.222540    0.718517   10.000000    ( 0.0000,  0.0000,  0.0000)
   3 Ni     2.489016    2.874068   10.000000    ( 0.0000,  0.0000,  0.0000)
   4 Ni     4.978032    2.874068   10.000000    ( 0.0000,  0.0000,  0.0000)
   5 Ni     7.467048    2.874068   10.000000    ( 0.0000,  0.0000,  0.0000)
   6 Ni     3.733524    5.029619   10.000000    ( 0.0000,  0.0000,  0.0000)
   7 Ni     6.222540    5.029619   10.000000    ( 0.0000,  0.0000,  0.0000)
   8 Ni     8.711556    5.029619   10.000000    ( 0.0000,  0.0000,  0.0000)
   9 Ni     0.000000    1.437034   12.032273    ( 0.0000,  0.0000,  0.0000)
  10 Ni     2.489016    1.437034   12.032273    ( 0.0000,  0.0000,  0.0000)
  11 Ni     4.978032    1.437034   12.032273    ( 0.0000,  0.0000,  0.0000)
  12 Ni     1.244508    3.592585   12.032273    ( 0.0000,  0.0000,  0.0000)
  13 Ni     3.733524    3.592585   12.032273    ( 0.0000,  0.0000,  0.0000)
  14 Ni     6.222540    3.592585   12.032273    ( 0.0000,  0.0000,  0.0000)
  15 Ni     2.489016    5.748136   12.032273    ( 0.0000,  0.0000,  0.0000)
  16 Ni     4.978032    5.748136   12.032273    ( 0.0000,  0.0000,  0.0000)
  17 Ni     7.467048    5.748136   12.032273    ( 0.0000,  0.0000,  0.0000)
  18 Ni     0.000000    0.000000   14.064546    ( 0.0000,  0.0000,  0.0000)
  19 Ni     2.489016    0.000000   14.064546    ( 0.0000,  0.0000,  0.0000)
  20 Ni     4.978032    0.000000   14.064546    ( 0.0000,  0.0000,  0.0000)
  21 Ni     1.244508    2.155551   14.064546    ( 0.0000,  0.0000,  0.0000)
  22 Ni     3.733524    2.155551   14.064546    ( 0.0000,  0.0000,  0.0000)
  23 Ni     6.222540    2.155551   14.064546    ( 0.0000,  0.0000,  0.0000)
  24 Ni     2.489016    4.311102   14.064546    ( 0.0000,  0.0000,  0.0000)
  25 Ni     4.978032    4.311102   14.064546    ( 0.0000,  0.0000,  0.0000)
  26 Ni     7.467048    4.311102   14.064546    ( 0.0000,  0.0000,  0.0000)
  27 H      3.733524    3.233326   15.864546    ( 0.0000,  0.0000,  0.0000)
  28 H      3.733524    3.233326   16.604546    ( 0.0000,  0.0000,  0.0000)

Unit cell:
           periodic     x           y           z      points  spacing
  1. axis:    yes    7.467048    0.000000    0.000000    35     0.1848
  2. axis:    yes    3.733524    6.466653    0.000000    35     0.1848
  3. axis:    no     0.000000    0.000000   24.064546   112     0.2149

  Lengths:   7.467048   7.467048  24.064546
  Angles:   90.000000  90.000000  60.000000

Effective grid spacing dv^(1/3) = 0.2038

     iter     time        total  log10-change:
                         energy   eigst   dens
iter:   1 12:42:39  -194.014250
iter:   2 12:42:51  -191.603474   -0.36  -1.54
iter:   3 12:43:03  -193.146607   -0.82  -1.63
iter:   4 12:43:14  -213.354352   -1.02  -1.74
iter:   5 12:43:26  -192.543810   -1.50  -1.62
iter:   6 12:43:38  -189.253897   -1.98  -1.83
iter:   7 12:43:50  -191.694547   -1.60  -1.94
iter:   8 12:44:03  -189.444416   -2.31  -2.00
iter:   9 12:44:15  -188.918703   -2.72  -2.14
iter:  10 12:44:26  -189.726917   -2.39  -2.22
iter:  11 12:44:38  -188.608365   -2.95  -2.21
iter:  12 12:44:50  -188.616399   -2.91  -2.39
iter:  13 12:45:02  -188.718238c  -3.06  -2.57
iter:  14 12:45:14  -188.579234c  -3.32  -2.61
iter:  15 12:45:26  -188.485412   -4.06  -2.68
iter:  16 12:45:38  -188.634603c  -3.71  -2.82
iter:  17 12:45:50  -188.486164c  -4.03  -2.66
iter:  18 12:46:02  -188.487443c  -4.20  -2.91
iter:  19 12:46:14  -188.484042c  -4.40  -2.93
iter:  20 12:46:25  -188.478719c  -4.35  -3.03
iter:  21 12:46:37  -188.481765c  -4.47  -3.07
iter:  22 12:46:49  -188.470226c  -4.40  -3.10
iter:  23 12:47:01  -188.472534c  -4.69  -3.34
iter:  24 12:47:13  -188.466084c  -5.50  -3.32
iter:  25 12:47:25  -188.468292c  -5.29  -3.50
iter:  26 12:47:38  -188.467356c  -5.24  -3.49
iter:  27 12:47:51  -188.467105c  -5.37  -3.62
iter:  28 12:48:04  -188.466600c  -5.96  -3.74
iter:  29 12:48:16  -188.466892c  -6.19  -3.93
iter:  30 12:48:28  -188.466859c  -6.30  -3.89
iter:  31 12:48:40  -188.466762c  -6.27  -4.04c
iter:  32 12:48:52  -188.466630c  -6.90  -4.10c
iter:  33 12:49:04  -188.466580c  -7.54c -4.29c

Converged after 33 iterations.

Dipole moment: (-0.367855, -0.153156, 0.115286) |e|*Ang

Energy contributions relative to reference atoms: (reference = -1116960.938401)

Kinetic:       +163.546871
Potential:     -120.717083
External:        +0.000000
XC:            -233.427313
Entropy (-ST):   -2.722799
Local:           +3.492345
SIC:             +0.000000
--------------------------
Free energy:   -189.827980
Extrapolated:  -188.466580

Showing all kpts
 Kpt  Band  Eigenvalues  Occupancy
  0   215     -1.65547    1.31918
  0   216     -1.65315    1.30872
  0   217     -1.61070    1.10645
  0   218     -1.60827    1.09445

  1   215     -1.62823    1.19212
  1   216     -1.61665    1.13578
  1   217     -1.61213    1.11352
  1   218     -1.61023    1.10414


Fermi level: -1.58933

No gap
No difference between direct/indirect transitions
Timing:                              incl.     excl.
-----------------------------------------------------------
Hamiltonian:                         1.375     0.003   0.0% |
 Atomic:                             0.617     0.002   0.0% |
  XC Correction:                     0.616     0.616   0.1% |
 Calculate atomic Hamiltonians:      0.329     0.329   0.1% |
 Communicate:                        0.000     0.000   0.0% |
 Initialize Hamiltonian:             0.001     0.001   0.0% |
 Poisson:                            0.004     0.004   0.0% |
 XC 3D grid:                         0.422     0.422   0.1% |
LCAO initialization:                37.305     0.038   0.0% |
 LCAO eigensolver:                   3.096     0.001   0.0% |
  Calculate projections:             0.005     0.005   0.0% |
  DenseAtomicCorrection:             0.008     0.008   0.0% |
  Distribute overlap matrix:         0.001     0.001   0.0% |
  Orbital Layouts:                   0.071     0.071   0.0% |
  Potential matrix:                  3.001     3.001   0.7% |
  Sum over cells:                    0.009     0.009   0.0% |
 LCAO to grid:                      33.405    33.405   7.7% |--|
 Set positions (LCAO WFS):           0.767     0.135   0.0% |
  Basic WFS set positions:           0.001     0.001   0.0% |
  Basis functions set positions:     0.000     0.000   0.0% |
  P tci:                             0.434     0.434   0.1% |
  ST tci:                            0.184     0.184   0.0% |
  mktci:                             0.013     0.013   0.0% |
PWDescriptor:                        0.012     0.012   0.0% |
SCF-cycle:                         395.962     0.048   0.0% |
 Davidson:                         319.369    52.177  12.0% |----|
  Apply H:                          47.091    45.540  10.4% |---|
   HMM T:                            1.551     1.551   0.4% |
  Subspace diag:                    64.637     0.009   0.0% |
   calc_h_matrix:                   54.036     7.893   1.8% ||
    Apply H:                        46.143    44.604  10.2% |---|
     HMM T:                          1.539     1.539   0.4% |
   diagonalize:                      1.900     1.900   0.4% |
   rotate_psi:                       8.692     8.692   2.0% ||
  calc. matrices:                  128.331    34.096   7.8% |--|
   Apply H:                         94.235    91.142  20.9% |-------|
    HMM T:                           3.093     3.093   0.7% |
  diagonalize:                      11.535    11.535   2.6% ||
  rotate_psi:                       15.599    15.599   3.6% ||
 Density:                           34.188     0.001   0.0% |
  Atomic density matrices:           0.155     0.155   0.0% |
  Mix:                              11.985    11.985   2.7% ||
  Multipole moments:                 0.010     0.010   0.0% |
  Pseudo density:                   22.037    21.839   5.0% |-|
   Symmetrize density:               0.198     0.198   0.0% |
 Hamiltonian:                       41.757     0.084   0.0% |
  Atomic:                           19.437     0.056   0.0% |
   XC Correction:                   19.381    19.381   4.4% |-|
  Calculate atomic Hamiltonians:     9.395     9.395   2.2% ||
  Communicate:                       0.000     0.000   0.0% |
  Poisson:                           0.116     0.116   0.0% |
  XC 3D grid:                       12.725    12.725   2.9% ||
 Orthonormalize:                     0.600     0.001   0.0% |
  calc_s_matrix:                     0.066     0.066   0.0% |
  inverse-cholesky:                  0.008     0.008   0.0% |
  projections:                       0.309     0.309   0.1% |
  rotate_psi_s:                      0.216     0.216   0.0% |
Set symmetry:                        0.001     0.001   0.0% |
Other:                               1.277     1.277   0.3% |
-----------------------------------------------------------
Total:                                       435.932 100.0%

Memory usage: 1.08 GiB
Date: Sat Mar 29 12:49:04 2025
