
  ___ ___ ___ _ _ _  
 |   |   |_  | | | | 
 | | | | | . | | | | 
 |__ |  _|___|_____|  24.6.0
 |___|_|             

User:   kerem@DESKTOP-CMKTO4T
Date:   Sat Mar 29 18:53:11 2025
Arch:   x86_64
Pid:    1486
CWD:    /home/kerem
Python: 3.12.9
gpaw:   /home/kerem/miniconda3/envs/gpaw-env/lib/python3.12/site-packages/gpaw
_gpaw:  /home/kerem/miniconda3/envs/gpaw-env/lib/python3.12/site-packages/
        _gpaw.cpython-312-x86_64-linux-gnu.so
ase:    /home/kerem/miniconda3/envs/gpaw-env/lib/python3.12/site-packages/ase (version 3.24.0)
numpy:  /home/kerem/miniconda3/envs/gpaw-env/lib/python3.12/site-packages/numpy (version 1.26.4)
scipy:  /home/kerem/miniconda3/envs/gpaw-env/lib/python3.12/site-packages/scipy (version 1.15.2)
libxc:  6.2.2
units:  Angstrom and eV
cores: 1
OpenMP: True
OMP_NUM_THREADS: 1

Input parameters:
  kpts: [2 2 1]
  mode: {ecut: 400.0,
         name: pw}
  xc: PBE

System changes: positions, numbers, cell, pbc, initial_charges, initial_magmoms 

Initialize ...

species:
  Ni:
    name: Nickel
    id: 0d9f38a9d6e76a2886f07bb4381f212b
    Z: 28.0
    valence: 16
    core: 12
    charge: 0.0
    file: /home/kerem/miniconda3/envs/gpaw-env/share/gpaw/Ni.PBE.gz
    compensation charges: {type: gauss,
                           rc: 0.36,
                           lmax: 2}
    cutoffs: {filter: 2.14,
              core: 1.98}
    projectors:
      #              energy  rcut
      - 4s(2.00)    -5.642   1.164
      - 3p(6.00)   -71.394   1.207
      - 4p(0.00)    -1.226   1.207
      - 3d(8.00)    -8.875   1.138
      -  s          21.570   1.164
      -  d          18.337   1.138
  
    # Using partial waves for Ni as LCAO basis

  H:
    name: Hydrogen
    id: d65de229564ff8ea4db303e23b6d1ecf
    Z: 1.0
    valence: 1
    core: 0
    charge: 0.0
    file: /home/kerem/miniconda3/envs/gpaw-env/share/gpaw/H.PBE.gz
    compensation charges: {type: gauss,
                           rc: 0.15,
                           lmax: 2}
    cutoffs: {filter: 0.85,
              core: 0.53}
    projectors:
      #              energy  rcut
      - 1s(1.00)    -6.494   0.476
      -  s          20.717   0.476
      -  p           0.000   0.476
  
    # Using partial waves for H as LCAO basis

Reference energy: -1116960.938401  # eV

Spin-paired calculation

Convergence criteria:
 Maximum [total energy] change in last 3 cyles: 0.0005 eV / valence electron
 Maximum integral of absolute [dens]ity change: 0.0001 electrons / valence electron
 Maximum integral of absolute [eigenst]ate change: 4e-08 eV^2 / valence electron
 Maximum number of scf [iter]ations: 333
 (Square brackets indicate name in SCF output, whereas a 'c' in
 the SCF output indicates the quantity has converged.)

Symmetries present (total): 2

  ( 1  0  0)  (-1  0  0)
  ( 0  1  0)  (-1  1  0)
  ( 0  0  1)  ( 0  0  1)
Note: your k-points are not as symmetric as your crystal!

4 k-points: 2 x 2 x 1 Monkhorst-Pack grid
2 k-points in the irreducible part of the Brillouin zone
       k-points in crystal coordinates                weights
   0:     0.25000000   -0.25000000    0.00000000          2/4
   1:     0.25000000    0.25000000    0.00000000          2/4

Wave functions: Plane wave expansion
  Cutoff energy: 400.000 eV
  Number of coefficients (min, max): 21105, 21124
  Pulay-stress correction: 0.000000 eV/Ang^3 (de/decut=0.000000)
  Using FFTW library
  ScaLapack parameters: grid=1x1, blocksize=None
  Wavefunction extrapolation:
    Improved wavefunction reuse through dual PAW basis 

Occupation numbers: Fermi-Dirac:
  width: 0.1000  # eV
 

Eigensolver
   Davidson(niter=2) 

Densities:
  Coarse grid: 35*35*112 grid
  Fine grid: 70*70*224 grid
  Total Charge: 0.000000 

Density mixing:
  Method: separate
  Backend: pulay
  Linear mixing parameter: 0.05
  old densities: 5
  Damping of long wavelength oscillations: 50 

Hamiltonian:
  XC and Coulomb potentials evaluated on a 70*70*224 grid
  Using the PBE Exchange-Correlation functional
  External potential:
    NoExternalPotential
 

XC parameters: PBE with 2 nearest neighbor stencil

Memory estimate:
  Process memory now: 1021.75 MiB
  Calculator: 368.46 MiB
    Density: 65.71 MiB
      Arrays: 27.22 MiB
      Localized functions: 28.02 MiB
      Mixer: 10.47 MiB
    Hamiltonian: 18.48 MiB
      Arrays: 17.79 MiB
      XC: 0.00 MiB
      Poisson: 0.00 MiB
      vbar: 0.68 MiB
    Wavefunctions: 284.27 MiB
      Arrays psit_nG: 170.83 MiB
      Eigensolver: 97.75 MiB
      Projections: 4.01 MiB
      Projectors: 5.80 MiB
      PW-descriptor: 5.88 MiB

Total number of cores used: 1

Number of atoms: 29
Number of atomic orbitals: 326
Number of bands in calculation: 265
Number of valence electrons: 434
Bands to converge: occupied

... initialized

Initializing position-dependent things.

Density initialized from atomic densities
Creating initial wave functions:
  265 bands from LCAO basis set

                                         
                                         
                                         
                                         
                                         
                  H                      
                  H                      
                                         
                                         
                                         
                                         
                                         
                                         
                                         
                                         
                                         
                                         
                                         
                                         
                                         
                                         
                                         
                                         
                                         
                Ni    Ni    Ni           
           Ni    NNi   NNi   Ni          
       Ni    Ni    Ni                    
            Ni    Ni    Ni               
        Ni    Ni   NNi   Ni    Ni        
                                         
               Ni    Ni    Ni            
           Ni    Ni    Ni                
                                         
                                         
                                         
                                         

Positions:
   0 Ni     1.244508    0.718517   10.000000    ( 0.0000,  0.0000,  0.0000)
   1 Ni     3.733524    0.718517   10.000000    ( 0.0000,  0.0000,  0.0000)
   2 Ni     6.222540    0.718517   10.000000    ( 0.0000,  0.0000,  0.0000)
   3 Ni     2.489016    2.874068   10.000000    ( 0.0000,  0.0000,  0.0000)
   4 Ni     4.978032    2.874068   10.000000    ( 0.0000,  0.0000,  0.0000)
   5 Ni     7.467048    2.874068   10.000000    ( 0.0000,  0.0000,  0.0000)
   6 Ni     3.733524    5.029619   10.000000    ( 0.0000,  0.0000,  0.0000)
   7 Ni     6.222540    5.029619   10.000000    ( 0.0000,  0.0000,  0.0000)
   8 Ni     8.711556    5.029619   10.000000    ( 0.0000,  0.0000,  0.0000)
   9 Ni     0.000000    1.437034   12.032273    ( 0.0000,  0.0000,  0.0000)
  10 Ni     2.489016    1.437034   12.032273    ( 0.0000,  0.0000,  0.0000)
  11 Ni     4.978032    1.437034   12.032273    ( 0.0000,  0.0000,  0.0000)
  12 Ni     1.244508    3.592585   12.032273    ( 0.0000,  0.0000,  0.0000)
  13 Ni     3.733524    3.592585   12.032273    ( 0.0000,  0.0000,  0.0000)
  14 Ni     6.222540    3.592585   12.032273    ( 0.0000,  0.0000,  0.0000)
  15 Ni     2.489016    5.748136   12.032273    ( 0.0000,  0.0000,  0.0000)
  16 Ni     4.978032    5.748136   12.032273    ( 0.0000,  0.0000,  0.0000)
  17 Ni     7.467048    5.748136   12.032273    ( 0.0000,  0.0000,  0.0000)
  18 Ni     0.000000    0.000000   14.064546    ( 0.0000,  0.0000,  0.0000)
  19 Ni     2.489016    0.000000   14.064546    ( 0.0000,  0.0000,  0.0000)
  20 Ni     4.978032    0.000000   14.064546    ( 0.0000,  0.0000,  0.0000)
  21 Ni     1.244508    2.155551   14.064546    ( 0.0000,  0.0000,  0.0000)
  22 Ni     3.733524    2.155551   14.064546    ( 0.0000,  0.0000,  0.0000)
  23 Ni     6.222540    2.155551   14.064546    ( 0.0000,  0.0000,  0.0000)
  24 Ni     2.489016    4.311102   14.064546    ( 0.0000,  0.0000,  0.0000)
  25 Ni     4.978032    4.311102   14.064546    ( 0.0000,  0.0000,  0.0000)
  26 Ni     7.467048    4.311102   14.064546    ( 0.0000,  0.0000,  0.0000)
  27 H      3.733524    3.233326   29.064546    ( 0.0000,  0.0000,  0.0000)
  28 H      3.733524    3.233326   29.804546    ( 0.0000,  0.0000,  0.0000)

Unit cell:
           periodic     x           y           z      points  spacing
  1. axis:    yes    7.467048    0.000000    0.000000    35     0.1848
  2. axis:    yes    3.733524    6.466653    0.000000    35     0.1848
  3. axis:    no     0.000000    0.000000   24.064546   112     0.2149

  Lengths:   7.467048   7.467048  24.064546
  Angles:   90.000000  90.000000  60.000000

Effective grid spacing dv^(1/3) = 0.2038

     iter     time        total  log10-change:
                         energy   eigst   dens
iter:   1 18:54:05  -194.452063
iter:   2 18:54:17  -191.966068   -0.37  -1.53
iter:   3 18:54:32  -192.117441   -0.81  -1.63
iter:   4 18:54:44  -197.668715   -1.11  -1.75
iter:   5 18:54:59  -194.924366   -1.44  -1.75
iter:   6 18:55:11  -193.002590   -1.96  -1.79
iter:   7 18:55:24  -195.132508   -1.38  -1.90
iter:   8 18:55:38  -193.149795   -1.89  -1.98
iter:   9 18:55:51  -188.950835   -2.58  -2.03
iter:  10 18:56:06  -188.716578   -3.17  -2.21
iter:  11 18:56:19  -188.678180   -2.65  -2.27
iter:  12 18:56:32  -188.702898c  -2.96  -2.69
iter:  13 18:56:46  -188.682874c  -3.83  -2.66
iter:  14 18:56:59  -188.720865c  -3.85  -2.68
iter:  15 18:57:13  -188.759219c  -3.54  -2.59
iter:  16 18:57:26  -188.670591c  -3.50  -2.65
iter:  17 18:57:39  -188.629472c  -4.10  -2.84
iter:  18 18:57:53  -188.625825c  -4.65  -2.91
iter:  19 18:58:07  -188.632741c  -4.37  -2.98
iter:  20 18:58:21  -188.627253c  -4.52  -3.03
iter:  21 18:58:34  -188.655735c  -4.27  -3.07
iter:  22 18:58:47  -188.731128c  -4.00  -2.99
iter:  23 18:59:02  -188.635138c  -4.15  -2.81
iter:  24 18:59:14  -188.638813c  -4.97  -3.10
iter:  25 18:59:28  -188.637330c  -4.95  -3.12
iter:  26 18:59:41  -188.633738c  -5.19  -3.22
iter:  27 18:59:54  -188.632244c  -5.37  -3.25
iter:  28 19:00:09  -188.640594c  -4.70  -3.37
iter:  29 19:00:21  -188.628794c  -4.81  -3.26
iter:  30 19:00:36  -188.626941c  -5.55  -3.55
iter:  31 19:00:49  -188.627173c  -5.97  -3.72
iter:  32 19:01:01  -188.627002c  -5.77  -3.75
iter:  33 19:01:16  -188.626349c  -5.82  -3.78
iter:  34 19:01:29  -188.628354c  -5.79  -4.02c
iter:  35 19:01:44  -188.627485c  -5.68  -3.72
iter:  36 19:01:57  -188.626352c  -6.15  -3.84
iter:  37 19:02:09  -188.626369c  -6.97  -4.20c
iter:  38 19:02:24  -188.626454c  -6.95  -4.30c
iter:  39 19:02:36  -188.626511c  -7.36  -4.54c
iter:  40 19:02:51  -188.626543c  -7.73c -4.65c

Converged after 40 iterations.

Dipole moment: (-0.268636, -0.149985, 0.001722) |e|*Ang

Energy contributions relative to reference atoms: (reference = -1116960.938401)

Kinetic:       +158.977149
Potential:     -117.586297
External:        +0.000000
XC:            -232.186955
Entropy (-ST):   -2.741569
Local:           +3.540345
SIC:             +0.000000
--------------------------
Free energy:   -189.997327
Extrapolated:  -188.626543

Showing all kpts
 Kpt  Band  Eigenvalues  Occupancy
  0   215     -1.76778    1.30676
  0   216     -1.76683    1.30245
  0   217     -1.72489    1.10216
  0   218     -1.72245    1.09005

  1   215     -1.74184    1.18513
  1   216     -1.73034    1.12903
  1   217     -1.72486    1.10201
  1   218     -1.72403    1.09789


Fermi level: -1.70439

No gap
No difference between direct/indirect transitions
Timing:                              incl.     excl.
-----------------------------------------------------------
Hamiltonian:                         1.270     0.003   0.0% |
 Atomic:                             0.611     0.002   0.0% |
  XC Correction:                     0.610     0.610   0.1% |
 Calculate atomic Hamiltonians:      0.352     0.352   0.1% |
 Communicate:                        0.000     0.000   0.0% |
 Initialize Hamiltonian:             0.001     0.001   0.0% |
 Poisson:                            0.004     0.004   0.0% |
 XC 3D grid:                         0.299     0.299   0.1% |
LCAO initialization:                39.558     0.036   0.0% |
 LCAO eigensolver:                   4.724     0.000   0.0% |
  Calculate projections:             0.007     0.007   0.0% |
  DenseAtomicCorrection:             0.166     0.166   0.0% |
  Distribute overlap matrix:         0.001     0.001   0.0% |
  Orbital Layouts:                   0.063     0.063   0.0% |
  Potential matrix:                  4.449     4.449   0.8% |
  Sum over cells:                    0.038     0.038   0.0% |
 LCAO to grid:                      33.824    33.824   5.8% |-|
 Set positions (LCAO WFS):           0.974     0.305   0.1% |
  Basic WFS set positions:           0.001     0.001   0.0% |
  Basis functions set positions:     0.000     0.000   0.0% |
  P tci:                             0.484     0.484   0.1% |
  ST tci:                            0.171     0.171   0.0% |
  mktci:                             0.012     0.012   0.0% |
PWDescriptor:                        0.020     0.020   0.0% |
SCF-cycle:                         537.662     0.045   0.0% |
 Davidson:                         439.757    84.562  14.6% |-----|
  Apply H:                          59.347    57.575   9.9% |---|
   HMM T:                            1.772     1.772   0.3% |
  Subspace diag:                    82.309     0.010   0.0% |
   calc_h_matrix:                   67.992    12.674   2.2% ||
    Apply H:                        55.318    53.554   9.2% |---|
     HMM T:                          1.764     1.764   0.3% |
   diagonalize:                      3.100     3.100   0.5% |
   rotate_psi:                      11.207    11.207   1.9% ||
  calc. matrices:                  174.897    54.290   9.4% |---|
   Apply H:                        120.607   115.526  19.9% |-------|
    HMM T:                           5.081     5.081   0.9% |
  diagonalize:                      16.713    16.713   2.9% ||
  rotate_psi:                       21.929    21.929   3.8% |-|
 Density:                           45.698     0.001   0.0% |
  Atomic density matrices:           0.182     0.182   0.0% |
  Mix:                              19.031    19.031   3.3% ||
  Multipole moments:                 0.015     0.015   0.0% |
  Pseudo density:                   26.469    26.234   4.5% |-|
   Symmetrize density:               0.235     0.235   0.0% |
 Hamiltonian:                       51.485     0.094   0.0% |
  Atomic:                           23.112     0.067   0.0% |
   XC Correction:                   23.045    23.045   4.0% |-|
  Calculate atomic Hamiltonians:    15.711    15.711   2.7% ||
  Communicate:                       0.000     0.000   0.0% |
  Poisson:                           0.129     0.129   0.0% |
  XC 3D grid:                       12.438    12.438   2.1% ||
 Orthonormalize:                     0.677     0.000   0.0% |
  calc_s_matrix:                     0.099     0.099   0.0% |
  inverse-cholesky:                  0.008     0.008   0.0% |
  projections:                       0.332     0.332   0.1% |
  rotate_psi_s:                      0.237     0.237   0.0% |
Set symmetry:                        0.001     0.001   0.0% |
Other:                               1.416     1.416   0.2% |
-----------------------------------------------------------
Total:                                       579.927 100.0%

Memory usage: 1.01 GiB
Date: Sat Mar 29 19:02:51 2025
