
  ___ ___ ___ _ _ _  
 |   |   |_  | | | | 
 | | | | | . | | | | 
 |__ |  _|___|_____|  24.6.0
 |___|_|             

User:   kerem@DESKTOP-CMKTO4T
Date:   Sat Mar 29 13:56:58 2025
Arch:   x86_64
Pid:    640
CWD:    /home/kerem
Python: 3.12.9
gpaw:   /home/kerem/miniconda3/envs/gpaw-env/lib/python3.12/site-packages/gpaw
_gpaw:  /home/kerem/miniconda3/envs/gpaw-env/lib/python3.12/site-packages/
        _gpaw.cpython-312-x86_64-linux-gnu.so
ase:    /home/kerem/miniconda3/envs/gpaw-env/lib/python3.12/site-packages/ase (version 3.24.0)
numpy:  /home/kerem/miniconda3/envs/gpaw-env/lib/python3.12/site-packages/numpy (version 1.26.4)
scipy:  /home/kerem/miniconda3/envs/gpaw-env/lib/python3.12/site-packages/scipy (version 1.15.2)
libxc:  6.2.2
units:  Angstrom and eV
cores: 1
OpenMP: True
OMP_NUM_THREADS: 1

Input parameters:
  kpts: [2 2 1]
  mode: {ecut: 400.0,
         name: pw}
  xc: PBE

System changes: positions, numbers, cell, pbc, initial_charges, initial_magmoms 

Initialize ...

species:
  Ni:
    name: Nickel
    id: 0d9f38a9d6e76a2886f07bb4381f212b
    Z: 28.0
    valence: 16
    core: 12
    charge: 0.0
    file: /home/kerem/miniconda3/envs/gpaw-env/share/gpaw/Ni.PBE.gz
    compensation charges: {type: gauss,
                           rc: 0.36,
                           lmax: 2}
    cutoffs: {filter: 2.14,
              core: 1.98}
    projectors:
      #              energy  rcut
      - 4s(2.00)    -5.642   1.164
      - 3p(6.00)   -71.394   1.207
      - 4p(0.00)    -1.226   1.207
      - 3d(8.00)    -8.875   1.138
      -  s          21.570   1.164
      -  d          18.337   1.138
  
    # Using partial waves for Ni as LCAO basis

  H:
    name: Hydrogen
    id: d65de229564ff8ea4db303e23b6d1ecf
    Z: 1.0
    valence: 1
    core: 0
    charge: 0.0
    file: /home/kerem/miniconda3/envs/gpaw-env/share/gpaw/H.PBE.gz
    compensation charges: {type: gauss,
                           rc: 0.15,
                           lmax: 2}
    cutoffs: {filter: 0.85,
              core: 0.53}
    projectors:
      #              energy  rcut
      - 1s(1.00)    -6.494   0.476
      -  s          20.717   0.476
      -  p           0.000   0.476
  
    # Using partial waves for H as LCAO basis

Reference energy: -1116960.938401  # eV

Spin-paired calculation

Convergence criteria:
 Maximum [total energy] change in last 3 cyles: 0.0005 eV / valence electron
 Maximum integral of absolute [dens]ity change: 0.0001 electrons / valence electron
 Maximum integral of absolute [eigenst]ate change: 4e-08 eV^2 / valence electron
 Maximum number of scf [iter]ations: 333
 (Square brackets indicate name in SCF output, whereas a 'c' in
 the SCF output indicates the quantity has converged.)

Symmetries present (total): 2

  ( 1  0  0)  (-1  0  0)
  ( 0  1  0)  (-1  1  0)
  ( 0  0  1)  ( 0  0  1)
Note: your k-points are not as symmetric as your crystal!

4 k-points: 2 x 2 x 1 Monkhorst-Pack grid
2 k-points in the irreducible part of the Brillouin zone
       k-points in crystal coordinates                weights
   0:     0.25000000   -0.25000000    0.00000000          2/4
   1:     0.25000000    0.25000000    0.00000000          2/4

Wave functions: Plane wave expansion
  Cutoff energy: 400.000 eV
  Number of coefficients (min, max): 21105, 21124
  Pulay-stress correction: 0.000000 eV/Ang^3 (de/decut=0.000000)
  Using FFTW library
  ScaLapack parameters: grid=1x1, blocksize=None
  Wavefunction extrapolation:
    Improved wavefunction reuse through dual PAW basis 

Occupation numbers: Fermi-Dirac:
  width: 0.1000  # eV
 

Eigensolver
   Davidson(niter=2) 

Densities:
  Coarse grid: 35*35*112 grid
  Fine grid: 70*70*224 grid
  Total Charge: 0.000000 

Density mixing:
  Method: separate
  Backend: pulay
  Linear mixing parameter: 0.05
  old densities: 5
  Damping of long wavelength oscillations: 50 

Hamiltonian:
  XC and Coulomb potentials evaluated on a 70*70*224 grid
  Using the PBE Exchange-Correlation functional
  External potential:
    NoExternalPotential
 

XC parameters: PBE with 2 nearest neighbor stencil

Memory estimate:
  Process memory now: 1131.55 MiB
  Calculator: 368.46 MiB
    Density: 65.71 MiB
      Arrays: 27.22 MiB
      Localized functions: 28.02 MiB
      Mixer: 10.47 MiB
    Hamiltonian: 18.48 MiB
      Arrays: 17.79 MiB
      XC: 0.00 MiB
      Poisson: 0.00 MiB
      vbar: 0.68 MiB
    Wavefunctions: 284.27 MiB
      Arrays psit_nG: 170.83 MiB
      Eigensolver: 97.75 MiB
      Projections: 4.01 MiB
      Projectors: 5.80 MiB
      PW-descriptor: 5.88 MiB

Total number of cores used: 1

Number of atoms: 29
Number of atomic orbitals: 326
Number of bands in calculation: 265
Number of valence electrons: 434
Bands to converge: occupied

... initialized

Initializing position-dependent things.

Density initialized from atomic densities
Creating initial wave functions:
  265 bands from LCAO basis set

                                         
                                         
                                         
                                         
                                         
                  H                      
                  H                      
                                         
                                         
                Ni    Ni    Ni           
           Ni    NNi   NNi   Ni          
       Ni    Ni    Ni                    
            Ni    Ni    Ni               
        Ni    Ni   NNi   Ni    Ni        
                                         
               Ni    Ni    Ni            
           Ni    Ni    Ni                
                                         
                                         
                                         
                                         

Positions:
   0 Ni     1.244508    0.718517   10.000000    ( 0.0000,  0.0000,  0.0000)
   1 Ni     3.733524    0.718517   10.000000    ( 0.0000,  0.0000,  0.0000)
   2 Ni     6.222540    0.718517   10.000000    ( 0.0000,  0.0000,  0.0000)
   3 Ni     2.489016    2.874068   10.000000    ( 0.0000,  0.0000,  0.0000)
   4 Ni     4.978032    2.874068   10.000000    ( 0.0000,  0.0000,  0.0000)
   5 Ni     7.467048    2.874068   10.000000    ( 0.0000,  0.0000,  0.0000)
   6 Ni     3.733524    5.029619   10.000000    ( 0.0000,  0.0000,  0.0000)
   7 Ni     6.222540    5.029619   10.000000    ( 0.0000,  0.0000,  0.0000)
   8 Ni     8.711556    5.029619   10.000000    ( 0.0000,  0.0000,  0.0000)
   9 Ni     0.000000    1.437034   12.032273    ( 0.0000,  0.0000,  0.0000)
  10 Ni     2.489016    1.437034   12.032273    ( 0.0000,  0.0000,  0.0000)
  11 Ni     4.978032    1.437034   12.032273    ( 0.0000,  0.0000,  0.0000)
  12 Ni     1.244508    3.592585   12.032273    ( 0.0000,  0.0000,  0.0000)
  13 Ni     3.733524    3.592585   12.032273    ( 0.0000,  0.0000,  0.0000)
  14 Ni     6.222540    3.592585   12.032273    ( 0.0000,  0.0000,  0.0000)
  15 Ni     2.489016    5.748136   12.032273    ( 0.0000,  0.0000,  0.0000)
  16 Ni     4.978032    5.748136   12.032273    ( 0.0000,  0.0000,  0.0000)
  17 Ni     7.467048    5.748136   12.032273    ( 0.0000,  0.0000,  0.0000)
  18 Ni     0.000000    0.000000   14.064546    ( 0.0000,  0.0000,  0.0000)
  19 Ni     2.489016    0.000000   14.064546    ( 0.0000,  0.0000,  0.0000)
  20 Ni     4.978032    0.000000   14.064546    ( 0.0000,  0.0000,  0.0000)
  21 Ni     1.244508    2.155551   14.064546    ( 0.0000,  0.0000,  0.0000)
  22 Ni     3.733524    2.155551   14.064546    ( 0.0000,  0.0000,  0.0000)
  23 Ni     6.222540    2.155551   14.064546    ( 0.0000,  0.0000,  0.0000)
  24 Ni     2.489016    4.311102   14.064546    ( 0.0000,  0.0000,  0.0000)
  25 Ni     4.978032    4.311102   14.064546    ( 0.0000,  0.0000,  0.0000)
  26 Ni     7.467048    4.311102   14.064546    ( 0.0000,  0.0000,  0.0000)
  27 H      3.733524    3.233326   16.864546    ( 0.0000,  0.0000,  0.0000)
  28 H      3.733524    3.233326   17.604546    ( 0.0000,  0.0000,  0.0000)

Unit cell:
           periodic     x           y           z      points  spacing
  1. axis:    yes    7.467048    0.000000    0.000000    35     0.1848
  2. axis:    yes    3.733524    6.466653    0.000000    35     0.1848
  3. axis:    no     0.000000    0.000000   24.064546   112     0.2149

  Lengths:   7.467048   7.467048  24.064546
  Angles:   90.000000  90.000000  60.000000

Effective grid spacing dv^(1/3) = 0.2038

     iter     time        total  log10-change:
                         energy   eigst   dens
iter:   1 13:57:54  -194.309931
iter:   2 13:58:08  -191.885401   -0.36  -1.54
iter:   3 13:58:21  -192.138469   -0.82  -1.63
iter:   4 13:58:34  -203.365297   -1.05  -1.75
iter:   5 13:58:47  -192.891379   -1.48  -1.69
iter:   6 13:59:01  -190.107647   -2.07  -1.82
iter:   7 13:59:14  -188.874650   -1.58  -1.93
iter:   8 13:59:28  -188.950518   -2.57  -2.18
iter:   9 13:59:40  -189.294456   -2.74  -2.18
iter:  10 13:59:54  -189.639984   -2.67  -2.21
iter:  11 14:00:07  -188.675444   -2.80  -2.23
iter:  12 14:00:21  -188.704208   -3.23  -2.44
iter:  13 14:00:34  -188.687294c  -3.27  -2.63
iter:  14 14:00:47  -188.713583c  -3.48  -2.68
iter:  15 14:01:01  -188.648820c  -3.60  -2.72
iter:  16 14:01:14  -188.681182c  -4.38  -2.75
iter:  17 14:01:28  -188.646859c  -4.10  -2.75
iter:  18 14:01:41  -188.670620c  -3.95  -2.95
iter:  19 14:01:55  -188.630994c  -4.43  -2.98
iter:  20 14:02:08  -188.648459c  -4.26  -3.25
iter:  21 14:02:22  -188.634304c  -5.08  -3.12
iter:  22 14:02:35  -188.630389c  -4.91  -3.28
iter:  23 14:02:48  -188.629158c  -5.16  -3.42
iter:  24 14:03:02  -188.630201c  -5.60  -3.45
iter:  25 14:03:15  -188.627486c  -5.38  -3.42
iter:  26 14:03:29  -188.627247c  -5.40  -3.57
iter:  27 14:03:42  -188.627532c  -5.50  -3.72
iter:  28 14:03:55  -188.626692c  -5.85  -3.69
iter:  29 14:04:08  -188.626211c  -6.01  -3.92
iter:  30 14:04:23  -188.626155c  -6.89  -4.11c
iter:  31 14:04:36  -188.626160c  -7.14  -4.22c
iter:  32 14:04:49  -188.626190c  -6.49  -4.28c
iter:  33 14:05:02  -188.626365c  -6.48  -4.27c
iter:  34 14:05:15  -188.626092c  -6.70  -4.16c
iter:  35 14:05:30  -188.626094c  -7.67c -4.45c

Converged after 35 iterations.

Dipole moment: (-0.266161, -0.149685, 0.021657) |e|*Ang

Energy contributions relative to reference atoms: (reference = -1116960.938401)

Kinetic:       +160.291262
Potential:     -118.731019
External:        +0.000000
XC:            -232.374411
Entropy (-ST):   -2.739391
Local:           +3.557769
SIC:             +0.000000
--------------------------
Free energy:   -189.995789
Extrapolated:  -188.626094

Showing all kpts
 Kpt  Band  Eigenvalues  Occupancy
  0   215     -1.74822    1.30882
  0   216     -1.74715    1.30395
  0   217     -1.70492    1.10240
  0   218     -1.70252    1.09049

  1   215     -1.72188    1.18537
  1   216     -1.71035    1.12916
  1   217     -1.70493    1.10243
  1   218     -1.70413    1.09848


Fermi level: -1.68437

No gap
No difference between direct/indirect transitions
Timing:                              incl.     excl.
-----------------------------------------------------------
Hamiltonian:                         1.457     0.002   0.0% |
 Atomic:                             0.675     0.002   0.0% |
  XC Correction:                     0.674     0.674   0.1% |
 Calculate atomic Hamiltonians:      0.451     0.451   0.1% |
 Communicate:                        0.000     0.000   0.0% |
 Initialize Hamiltonian:             0.001     0.001   0.0% |
 Poisson:                            0.003     0.003   0.0% |
 XC 3D grid:                         0.324     0.324   0.1% |
LCAO initialization:                39.847     0.039   0.0% |
 LCAO eigensolver:                   3.392     0.001   0.0% |
  Calculate projections:             0.006     0.006   0.0% |
  DenseAtomicCorrection:             0.136     0.136   0.0% |
  Distribute overlap matrix:         0.001     0.001   0.0% |
  Orbital Layouts:                   0.066     0.066   0.0% |
  Potential matrix:                  3.158     3.158   0.6% |
  Sum over cells:                    0.024     0.024   0.0% |
 LCAO to grid:                      35.390    35.390   6.9% |--|
 Set positions (LCAO WFS):           1.026     0.336   0.1% |
  Basic WFS set positions:           0.002     0.002   0.0% |
  Basis functions set positions:     0.000     0.000   0.0% |
  P tci:                             0.488     0.488   0.1% |
  ST tci:                            0.185     0.185   0.0% |
  mktci:                             0.015     0.015   0.0% |
PWDescriptor:                        0.019     0.019   0.0% |
SCF-cycle:                         468.817     0.047   0.0% |
 Davidson:                         382.183    70.590  13.8% |-----|
  Apply H:                          52.702    51.032  10.0% |---|
   HMM T:                            1.671     1.671   0.3% |
  Subspace diag:                    75.832     0.010   0.0% |
   calc_h_matrix:                   62.196    10.906   2.1% ||
    Apply H:                        51.289    49.647   9.7% |---|
     HMM T:                          1.643     1.643   0.3% |
   diagonalize:                      3.260     3.260   0.6% |
   rotate_psi:                      10.366    10.366   2.0% ||
  calc. matrices:                  150.295    47.295   9.2% |---|
   Apply H:                        103.000    99.717  19.5% |-------|
    HMM T:                           3.283     3.283   0.6% |
  diagonalize:                      13.543    13.543   2.6% ||
  rotate_psi:                       19.221    19.221   3.8% |-|
 Density:                           41.415     0.001   0.0% |
  Atomic density matrices:           0.159     0.159   0.0% |
  Mix:                              16.936    16.936   3.3% ||
  Multipole moments:                 0.014     0.014   0.0% |
  Pseudo density:                   24.305    24.086   4.7% |-|
   Symmetrize density:               0.219     0.219   0.0% |
 Hamiltonian:                       44.230     0.092   0.0% |
  Atomic:                           20.271     0.061   0.0% |
   XC Correction:                   20.211    20.211   4.0% |-|
  Calculate atomic Hamiltonians:    13.499    13.499   2.6% ||
  Communicate:                       0.000     0.000   0.0% |
  Poisson:                           0.125     0.125   0.0% |
  XC 3D grid:                       10.242    10.242   2.0% ||
 Orthonormalize:                     0.942     0.000   0.0% |
  calc_s_matrix:                     0.217     0.217   0.0% |
  inverse-cholesky:                  0.012     0.012   0.0% |
  projections:                       0.431     0.431   0.1% |
  rotate_psi_s:                      0.281     0.281   0.1% |
Set symmetry:                        0.001     0.001   0.0% |
Other:                               1.396     1.396   0.3% |
-----------------------------------------------------------
Total:                                       511.536 100.0%

Memory usage: 1.11 GiB
Date: Sat Mar 29 14:05:30 2025
