
  ___ ___ ___ _ _ _  
 |   |   |_  | | | | 
 | | | | | . | | | | 
 |__ |  _|___|_____|  24.6.0
 |___|_|             

User:   kerem@DESKTOP-CMKTO4T
Date:   Sat Mar 29 13:37:18 2025
Arch:   x86_64
Pid:    640
CWD:    /home/kerem
Python: 3.12.9
gpaw:   /home/kerem/miniconda3/envs/gpaw-env/lib/python3.12/site-packages/gpaw
_gpaw:  /home/kerem/miniconda3/envs/gpaw-env/lib/python3.12/site-packages/
        _gpaw.cpython-312-x86_64-linux-gnu.so
ase:    /home/kerem/miniconda3/envs/gpaw-env/lib/python3.12/site-packages/ase (version 3.24.0)
numpy:  /home/kerem/miniconda3/envs/gpaw-env/lib/python3.12/site-packages/numpy (version 1.26.4)
scipy:  /home/kerem/miniconda3/envs/gpaw-env/lib/python3.12/site-packages/scipy (version 1.15.2)
libxc:  6.2.2
units:  Angstrom and eV
cores: 1
OpenMP: True
OMP_NUM_THREADS: 1

Input parameters:
  kpts: [2 2 1]
  mode: {ecut: 400.0,
         name: pw}
  xc: PBE

System changes: positions, numbers, cell, pbc, initial_charges, initial_magmoms 

Initialize ...

species:
  Ni:
    name: Nickel
    id: 0d9f38a9d6e76a2886f07bb4381f212b
    Z: 28.0
    valence: 16
    core: 12
    charge: 0.0
    file: /home/kerem/miniconda3/envs/gpaw-env/share/gpaw/Ni.PBE.gz
    compensation charges: {type: gauss,
                           rc: 0.36,
                           lmax: 2}
    cutoffs: {filter: 2.14,
              core: 1.98}
    projectors:
      #              energy  rcut
      - 4s(2.00)    -5.642   1.164
      - 3p(6.00)   -71.394   1.207
      - 4p(0.00)    -1.226   1.207
      - 3d(8.00)    -8.875   1.138
      -  s          21.570   1.164
      -  d          18.337   1.138
  
    # Using partial waves for Ni as LCAO basis

  H:
    name: Hydrogen
    id: d65de229564ff8ea4db303e23b6d1ecf
    Z: 1.0
    valence: 1
    core: 0
    charge: 0.0
    file: /home/kerem/miniconda3/envs/gpaw-env/share/gpaw/H.PBE.gz
    compensation charges: {type: gauss,
                           rc: 0.15,
                           lmax: 2}
    cutoffs: {filter: 0.85,
              core: 0.53}
    projectors:
      #              energy  rcut
      - 1s(1.00)    -6.494   0.476
      -  s          20.717   0.476
      -  p           0.000   0.476
  
    # Using partial waves for H as LCAO basis

Reference energy: -1116960.938401  # eV

Spin-paired calculation

Convergence criteria:
 Maximum [total energy] change in last 3 cyles: 0.0005 eV / valence electron
 Maximum integral of absolute [dens]ity change: 0.0001 electrons / valence electron
 Maximum integral of absolute [eigenst]ate change: 4e-08 eV^2 / valence electron
 Maximum number of scf [iter]ations: 333
 (Square brackets indicate name in SCF output, whereas a 'c' in
 the SCF output indicates the quantity has converged.)

Symmetries present (total): 2

  ( 1  0  0)  (-1  0  0)
  ( 0  1  0)  (-1  1  0)
  ( 0  0  1)  ( 0  0  1)
Note: your k-points are not as symmetric as your crystal!

4 k-points: 2 x 2 x 1 Monkhorst-Pack grid
2 k-points in the irreducible part of the Brillouin zone
       k-points in crystal coordinates                weights
   0:     0.25000000   -0.25000000    0.00000000          2/4
   1:     0.25000000    0.25000000    0.00000000          2/4

Wave functions: Plane wave expansion
  Cutoff energy: 400.000 eV
  Number of coefficients (min, max): 21105, 21124
  Pulay-stress correction: 0.000000 eV/Ang^3 (de/decut=0.000000)
  Using FFTW library
  ScaLapack parameters: grid=1x1, blocksize=None
  Wavefunction extrapolation:
    Improved wavefunction reuse through dual PAW basis 

Occupation numbers: Fermi-Dirac:
  width: 0.1000  # eV
 

Eigensolver
   Davidson(niter=2) 

Densities:
  Coarse grid: 35*35*112 grid
  Fine grid: 70*70*224 grid
  Total Charge: 0.000000 

Density mixing:
  Method: separate
  Backend: pulay
  Linear mixing parameter: 0.05
  old densities: 5
  Damping of long wavelength oscillations: 50 

Hamiltonian:
  XC and Coulomb potentials evaluated on a 70*70*224 grid
  Using the PBE Exchange-Correlation functional
  External potential:
    NoExternalPotential
 

XC parameters: PBE with 2 nearest neighbor stencil

Memory estimate:
  Process memory now: 1131.55 MiB
  Calculator: 368.46 MiB
    Density: 65.71 MiB
      Arrays: 27.22 MiB
      Localized functions: 28.02 MiB
      Mixer: 10.47 MiB
    Hamiltonian: 18.48 MiB
      Arrays: 17.79 MiB
      XC: 0.00 MiB
      Poisson: 0.00 MiB
      vbar: 0.68 MiB
    Wavefunctions: 284.27 MiB
      Arrays psit_nG: 170.83 MiB
      Eigensolver: 97.75 MiB
      Projections: 4.01 MiB
      Projectors: 5.80 MiB
      PW-descriptor: 5.88 MiB

Total number of cores used: 1

Number of atoms: 29
Number of atomic orbitals: 326
Number of bands in calculation: 265
Number of valence electrons: 434
Bands to converge: occupied

... initialized

Initializing position-dependent things.

Density initialized from atomic densities
Creating initial wave functions:
  265 bands from LCAO basis set

                                         
                                         
                                         
                                         
                                         
                  H                      
                  H                      
                                         
                                         
                Ni    Ni    Ni           
           Ni    NNi   NNi   Ni          
       Ni    Ni    Ni                    
            Ni    Ni    Ni               
        Ni    Ni   NNi   Ni    Ni        
                                         
               Ni    Ni    Ni            
           Ni    Ni    Ni                
                                         
                                         
                                         
                                         

Positions:
   0 Ni     1.244508    0.718517   10.000000    ( 0.0000,  0.0000,  0.0000)
   1 Ni     3.733524    0.718517   10.000000    ( 0.0000,  0.0000,  0.0000)
   2 Ni     6.222540    0.718517   10.000000    ( 0.0000,  0.0000,  0.0000)
   3 Ni     2.489016    2.874068   10.000000    ( 0.0000,  0.0000,  0.0000)
   4 Ni     4.978032    2.874068   10.000000    ( 0.0000,  0.0000,  0.0000)
   5 Ni     7.467048    2.874068   10.000000    ( 0.0000,  0.0000,  0.0000)
   6 Ni     3.733524    5.029619   10.000000    ( 0.0000,  0.0000,  0.0000)
   7 Ni     6.222540    5.029619   10.000000    ( 0.0000,  0.0000,  0.0000)
   8 Ni     8.711556    5.029619   10.000000    ( 0.0000,  0.0000,  0.0000)
   9 Ni     0.000000    1.437034   12.032273    ( 0.0000,  0.0000,  0.0000)
  10 Ni     2.489016    1.437034   12.032273    ( 0.0000,  0.0000,  0.0000)
  11 Ni     4.978032    1.437034   12.032273    ( 0.0000,  0.0000,  0.0000)
  12 Ni     1.244508    3.592585   12.032273    ( 0.0000,  0.0000,  0.0000)
  13 Ni     3.733524    3.592585   12.032273    ( 0.0000,  0.0000,  0.0000)
  14 Ni     6.222540    3.592585   12.032273    ( 0.0000,  0.0000,  0.0000)
  15 Ni     2.489016    5.748136   12.032273    ( 0.0000,  0.0000,  0.0000)
  16 Ni     4.978032    5.748136   12.032273    ( 0.0000,  0.0000,  0.0000)
  17 Ni     7.467048    5.748136   12.032273    ( 0.0000,  0.0000,  0.0000)
  18 Ni     0.000000    0.000000   14.064546    ( 0.0000,  0.0000,  0.0000)
  19 Ni     2.489016    0.000000   14.064546    ( 0.0000,  0.0000,  0.0000)
  20 Ni     4.978032    0.000000   14.064546    ( 0.0000,  0.0000,  0.0000)
  21 Ni     1.244508    2.155551   14.064546    ( 0.0000,  0.0000,  0.0000)
  22 Ni     3.733524    2.155551   14.064546    ( 0.0000,  0.0000,  0.0000)
  23 Ni     6.222540    2.155551   14.064546    ( 0.0000,  0.0000,  0.0000)
  24 Ni     2.489016    4.311102   14.064546    ( 0.0000,  0.0000,  0.0000)
  25 Ni     4.978032    4.311102   14.064546    ( 0.0000,  0.0000,  0.0000)
  26 Ni     7.467048    4.311102   14.064546    ( 0.0000,  0.0000,  0.0000)
  27 H      3.733524    3.233326   16.664546    ( 0.0000,  0.0000,  0.0000)
  28 H      3.733524    3.233326   17.404546    ( 0.0000,  0.0000,  0.0000)

Unit cell:
           periodic     x           y           z      points  spacing
  1. axis:    yes    7.467048    0.000000    0.000000    35     0.1848
  2. axis:    yes    3.733524    6.466653    0.000000    35     0.1848
  3. axis:    no     0.000000    0.000000   24.064546   112     0.2149

  Lengths:   7.467048   7.467048  24.064546
  Angles:   90.000000  90.000000  60.000000

Effective grid spacing dv^(1/3) = 0.2038

     iter     time        total  log10-change:
                         energy   eigst   dens
iter:   1 13:39:01  -194.268442
iter:   2 13:39:33  -191.852686   -0.36  -1.54
iter:   3 13:40:04  -192.203084   -0.82  -1.63
iter:   4 13:40:35  -205.086980   -1.04  -1.75
iter:   5 13:41:06  -192.594579   -1.49  -1.68
iter:   6 13:41:35  -189.702470   -2.07  -1.83
iter:   7 13:42:04  -189.658200   -1.63  -1.93
iter:   8 13:42:32  -189.536211c  -2.38  -2.11
iter:   9 13:43:03  -188.842499   -2.83  -2.15
iter:  10 13:43:32  -189.303254   -2.28  -2.22
iter:  11 13:44:00  -188.816165   -2.97  -2.35
iter:  12 13:44:29  -188.902728   -2.88  -2.41
iter:  13 13:44:58  -188.684938   -3.33  -2.51
iter:  14 13:45:25  -188.655476   -3.79  -2.63
iter:  15 13:45:55  -188.673295c  -4.14  -2.66
iter:  16 13:46:24  -188.615081c  -4.11  -2.68
iter:  17 13:46:54  -188.630552c  -3.96  -2.82
iter:  18 13:47:22  -188.637454c  -4.45  -2.85
iter:  19 13:47:50  -188.717291c  -3.72  -2.91
iter:  20 13:48:19  -188.622939c  -4.19  -2.76
iter:  21 13:48:49  -188.620844c  -4.61  -3.01
iter:  22 13:49:19  -188.625417c  -4.55  -3.08
iter:  23 13:49:46  -188.625205c  -4.71  -3.12
iter:  24 13:50:15  -188.621880c  -4.73  -3.14
iter:  25 13:50:45  -188.626826c  -4.71  -3.27
iter:  26 13:51:15  -188.617052c  -5.00  -3.25
iter:  27 13:51:45  -188.617360c  -5.62  -3.48
iter:  28 13:52:14  -188.616976c  -5.30  -3.52
iter:  29 13:52:41  -188.617170c  -5.35  -3.59
iter:  30 13:52:55  -188.615823c  -5.69  -3.60
iter:  31 13:53:09  -188.616282c  -6.00  -3.70
iter:  32 13:53:25  -188.617338c  -5.60  -3.71
iter:  33 13:53:39  -188.615997c  -5.83  -3.62
iter:  34 13:53:54  -188.616804c  -5.90  -3.78
iter:  35 13:54:09  -188.616415c  -6.03  -3.89
iter:  36 13:54:24  -188.617060c  -6.09  -3.92
iter:  37 13:54:38  -188.616634c  -6.38  -3.92
iter:  38 13:54:52  -188.617275c  -5.96  -4.07c
iter:  39 13:55:06  -188.616778c  -6.38  -4.08c
iter:  40 13:55:20  -188.616862c  -6.91  -4.23c
iter:  41 13:55:34  -188.616751c  -6.78  -4.27c
iter:  42 13:55:48  -188.616631c  -6.72  -4.26c
iter:  43 13:56:03  -188.616736c  -6.56  -4.41c
iter:  44 13:56:17  -188.616563c  -6.68  -4.20c
iter:  45 13:56:31  -188.616381c  -7.05  -4.37c
iter:  46 13:56:45  -188.616445c  -7.25  -4.68c
iter:  47 13:56:58  -188.616331c  -7.70c -4.67c

Converged after 47 iterations.

Dipole moment: (-0.272826, -0.149783, 0.032329) |e|*Ang

Energy contributions relative to reference atoms: (reference = -1116960.938401)

Kinetic:       +160.088414
Potential:     -118.383020
External:        +0.000000
XC:            -232.483067
Entropy (-ST):   -2.738566
Local:           +3.530624
SIC:             +0.000000
--------------------------
Free energy:   -189.985614
Extrapolated:  -188.616331

Showing all kpts
 Kpt  Band  Eigenvalues  Occupancy
  0   215     -1.73765    1.31033
  0   216     -1.73643    1.30482
  0   217     -1.69400    1.10229
  0   218     -1.69158    1.09032

  1   215     -1.71096    1.18531
  1   216     -1.69943    1.12911
  1   217     -1.69404    1.10253
  1   218     -1.69324    1.09856


Fermi level: -1.67347

No gap
No difference between direct/indirect transitions
Timing:                              incl.     excl.
-----------------------------------------------------------
Hamiltonian:                         1.249     0.003   0.0% |
 Atomic:                             0.600     0.002   0.0% |
  XC Correction:                     0.599     0.599   0.1% |
 Calculate atomic Hamiltonians:      0.319     0.319   0.0% |
 Communicate:                        0.000     0.000   0.0% |
 Initialize Hamiltonian:             0.001     0.001   0.0% |
 Poisson:                            0.004     0.004   0.0% |
 XC 3D grid:                         0.322     0.322   0.0% |
LCAO initialization:                73.920     0.035   0.0% |
 LCAO eigensolver:                   3.596     0.000   0.0% |
  Calculate projections:             0.006     0.006   0.0% |
  DenseAtomicCorrection:             0.191     0.191   0.0% |
  Distribute overlap matrix:         0.001     0.001   0.0% |
  Orbital Layouts:                   0.077     0.077   0.0% |
  Potential matrix:                  3.301     3.301   0.3% |
  Sum over cells:                    0.020     0.020   0.0% |
 LCAO to grid:                      69.210    69.210   5.9% |-|
 Set positions (LCAO WFS):           1.080     0.422   0.0% |
  Basic WFS set positions:           0.001     0.001   0.0% |
  Basis functions set positions:     0.000     0.000   0.0% |
  P tci:                             0.460     0.460   0.0% |
  ST tci:                            0.184     0.184   0.0% |
  mktci:                             0.012     0.012   0.0% |
PWDescriptor:                        0.011     0.011   0.0% |
SCF-cycle:                        1102.970     0.123   0.0% |
 Davidson:                         896.337   154.640  13.1% |----|
  Apply H:                         131.268   128.405  10.9% |---|
   HMM T:                            2.863     2.863   0.2% |
  Subspace diag:                   177.629     0.019   0.0% |
   calc_h_matrix:                  150.945    20.720   1.8% ||
    Apply H:                       130.224   127.389  10.8% |---|
     HMM T:                          2.836     2.836   0.2% |
   diagonalize:                      7.350     7.350   0.6% |
   rotate_psi:                      19.316    19.316   1.6% ||
  calc. matrices:                  360.802    97.191   8.2% |--|
   Apply H:                        263.612   257.907  21.9% |--------|
    HMM T:                           5.705     5.705   0.5% |
  diagonalize:                      35.894    35.894   3.0% ||
  rotate_psi:                       36.104    36.104   3.1% ||
 Density:                           94.811     0.001   0.0% |
  Atomic density matrices:           0.413     0.413   0.0% |
  Mix:                              31.228    31.228   2.6% ||
  Multipole moments:                 0.031     0.031   0.0% |
  Pseudo density:                   63.139    62.581   5.3% |-|
   Symmetrize density:               0.557     0.557   0.0% |
 Hamiltonian:                      110.553     0.196   0.0% |
  Atomic:                           57.158     0.154   0.0% |
   XC Correction:                   57.004    57.004   4.8% |-|
  Calculate atomic Hamiltonians:    26.969    26.969   2.3% ||
  Communicate:                       0.000     0.000   0.0% |
  Poisson:                           0.243     0.243   0.0% |
  XC 3D grid:                       25.985    25.985   2.2% ||
 Orthonormalize:                     1.146     0.001   0.0% |
  calc_s_matrix:                     0.147     0.147   0.0% |
  inverse-cholesky:                  0.016     0.016   0.0% |
  projections:                       0.635     0.635   0.1% |
  rotate_psi_s:                      0.347     0.347   0.0% |
Set symmetry:                        0.001     0.001   0.0% |
Other:                               1.545     1.545   0.1% |
-----------------------------------------------------------
Total:                                      1179.695 100.0%

Memory usage: 1.11 GiB
Date: Sat Mar 29 13:56:58 2025
