
  ___ ___ ___ _ _ _  
 |   |   |_  | | | | 
 | | | | | . | | | | 
 |__ |  _|___|_____|  24.6.0
 |___|_|             

User:   kerem@DESKTOP-CMKTO4T
Date:   Sat Mar 29 14:14:54 2025
Arch:   x86_64
Pid:    640
CWD:    /home/kerem
Python: 3.12.9
gpaw:   /home/kerem/miniconda3/envs/gpaw-env/lib/python3.12/site-packages/gpaw
_gpaw:  /home/kerem/miniconda3/envs/gpaw-env/lib/python3.12/site-packages/
        _gpaw.cpython-312-x86_64-linux-gnu.so
ase:    /home/kerem/miniconda3/envs/gpaw-env/lib/python3.12/site-packages/ase (version 3.24.0)
numpy:  /home/kerem/miniconda3/envs/gpaw-env/lib/python3.12/site-packages/numpy (version 1.26.4)
scipy:  /home/kerem/miniconda3/envs/gpaw-env/lib/python3.12/site-packages/scipy (version 1.15.2)
libxc:  6.2.2
units:  Angstrom and eV
cores: 1
OpenMP: True
OMP_NUM_THREADS: 1

Input parameters:
  kpts: [2 2 1]
  mode: {ecut: 400.0,
         name: pw}
  xc: PBE

System changes: positions, numbers, cell, pbc, initial_charges, initial_magmoms 

Initialize ...

species:
  Ni:
    name: Nickel
    id: 0d9f38a9d6e76a2886f07bb4381f212b
    Z: 28.0
    valence: 16
    core: 12
    charge: 0.0
    file: /home/kerem/miniconda3/envs/gpaw-env/share/gpaw/Ni.PBE.gz
    compensation charges: {type: gauss,
                           rc: 0.36,
                           lmax: 2}
    cutoffs: {filter: 2.14,
              core: 1.98}
    projectors:
      #              energy  rcut
      - 4s(2.00)    -5.642   1.164
      - 3p(6.00)   -71.394   1.207
      - 4p(0.00)    -1.226   1.207
      - 3d(8.00)    -8.875   1.138
      -  s          21.570   1.164
      -  d          18.337   1.138
  
    # Using partial waves for Ni as LCAO basis

  H:
    name: Hydrogen
    id: d65de229564ff8ea4db303e23b6d1ecf
    Z: 1.0
    valence: 1
    core: 0
    charge: 0.0
    file: /home/kerem/miniconda3/envs/gpaw-env/share/gpaw/H.PBE.gz
    compensation charges: {type: gauss,
                           rc: 0.15,
                           lmax: 2}
    cutoffs: {filter: 0.85,
              core: 0.53}
    projectors:
      #              energy  rcut
      - 1s(1.00)    -6.494   0.476
      -  s          20.717   0.476
      -  p           0.000   0.476
  
    # Using partial waves for H as LCAO basis

Reference energy: -1116960.938401  # eV

Spin-paired calculation

Convergence criteria:
 Maximum [total energy] change in last 3 cyles: 0.0005 eV / valence electron
 Maximum integral of absolute [dens]ity change: 0.0001 electrons / valence electron
 Maximum integral of absolute [eigenst]ate change: 4e-08 eV^2 / valence electron
 Maximum number of scf [iter]ations: 333
 (Square brackets indicate name in SCF output, whereas a 'c' in
 the SCF output indicates the quantity has converged.)

Symmetries present (total): 2

  ( 1  0  0)  (-1  0  0)
  ( 0  1  0)  (-1  1  0)
  ( 0  0  1)  ( 0  0  1)
Note: your k-points are not as symmetric as your crystal!

4 k-points: 2 x 2 x 1 Monkhorst-Pack grid
2 k-points in the irreducible part of the Brillouin zone
       k-points in crystal coordinates                weights
   0:     0.25000000   -0.25000000    0.00000000          2/4
   1:     0.25000000    0.25000000    0.00000000          2/4

Wave functions: Plane wave expansion
  Cutoff energy: 400.000 eV
  Number of coefficients (min, max): 21105, 21124
  Pulay-stress correction: 0.000000 eV/Ang^3 (de/decut=0.000000)
  Using FFTW library
  ScaLapack parameters: grid=1x1, blocksize=None
  Wavefunction extrapolation:
    Improved wavefunction reuse through dual PAW basis 

Occupation numbers: Fermi-Dirac:
  width: 0.1000  # eV
 

Eigensolver
   Davidson(niter=2) 

Densities:
  Coarse grid: 35*35*112 grid
  Fine grid: 70*70*224 grid
  Total Charge: 0.000000 

Density mixing:
  Method: separate
  Backend: pulay
  Linear mixing parameter: 0.05
  old densities: 5
  Damping of long wavelength oscillations: 50 

Hamiltonian:
  XC and Coulomb potentials evaluated on a 70*70*224 grid
  Using the PBE Exchange-Correlation functional
  External potential:
    NoExternalPotential
 

XC parameters: PBE with 2 nearest neighbor stencil

Memory estimate:
  Process memory now: 1131.55 MiB
  Calculator: 368.46 MiB
    Density: 65.71 MiB
      Arrays: 27.22 MiB
      Localized functions: 28.02 MiB
      Mixer: 10.47 MiB
    Hamiltonian: 18.48 MiB
      Arrays: 17.79 MiB
      XC: 0.00 MiB
      Poisson: 0.00 MiB
      vbar: 0.68 MiB
    Wavefunctions: 284.27 MiB
      Arrays psit_nG: 170.83 MiB
      Eigensolver: 97.75 MiB
      Projections: 4.01 MiB
      Projectors: 5.80 MiB
      PW-descriptor: 5.88 MiB

Total number of cores used: 1

Number of atoms: 29
Number of atomic orbitals: 326
Number of bands in calculation: 265
Number of valence electrons: 434
Bands to converge: occupied

... initialized

Initializing position-dependent things.

Density initialized from atomic densities
Creating initial wave functions:
  265 bands from LCAO basis set

                                         
                                         
                                         
                                         
                                         
                  H                      
                  H                      
                                         
                                         
                                         
                Ni    Ni    Ni           
           Ni    NNi   NNi   Ni          
       Ni    Ni    Ni                    
            Ni    Ni    Ni               
        Ni    Ni   NNi   Ni    Ni        
                                         
               Ni    Ni    Ni            
           Ni    Ni    Ni                
                                         
                                         
                                         
                                         

Positions:
   0 Ni     1.244508    0.718517   10.000000    ( 0.0000,  0.0000,  0.0000)
   1 Ni     3.733524    0.718517   10.000000    ( 0.0000,  0.0000,  0.0000)
   2 Ni     6.222540    0.718517   10.000000    ( 0.0000,  0.0000,  0.0000)
   3 Ni     2.489016    2.874068   10.000000    ( 0.0000,  0.0000,  0.0000)
   4 Ni     4.978032    2.874068   10.000000    ( 0.0000,  0.0000,  0.0000)
   5 Ni     7.467048    2.874068   10.000000    ( 0.0000,  0.0000,  0.0000)
   6 Ni     3.733524    5.029619   10.000000    ( 0.0000,  0.0000,  0.0000)
   7 Ni     6.222540    5.029619   10.000000    ( 0.0000,  0.0000,  0.0000)
   8 Ni     8.711556    5.029619   10.000000    ( 0.0000,  0.0000,  0.0000)
   9 Ni     0.000000    1.437034   12.032273    ( 0.0000,  0.0000,  0.0000)
  10 Ni     2.489016    1.437034   12.032273    ( 0.0000,  0.0000,  0.0000)
  11 Ni     4.978032    1.437034   12.032273    ( 0.0000,  0.0000,  0.0000)
  12 Ni     1.244508    3.592585   12.032273    ( 0.0000,  0.0000,  0.0000)
  13 Ni     3.733524    3.592585   12.032273    ( 0.0000,  0.0000,  0.0000)
  14 Ni     6.222540    3.592585   12.032273    ( 0.0000,  0.0000,  0.0000)
  15 Ni     2.489016    5.748136   12.032273    ( 0.0000,  0.0000,  0.0000)
  16 Ni     4.978032    5.748136   12.032273    ( 0.0000,  0.0000,  0.0000)
  17 Ni     7.467048    5.748136   12.032273    ( 0.0000,  0.0000,  0.0000)
  18 Ni     0.000000    0.000000   14.064546    ( 0.0000,  0.0000,  0.0000)
  19 Ni     2.489016    0.000000   14.064546    ( 0.0000,  0.0000,  0.0000)
  20 Ni     4.978032    0.000000   14.064546    ( 0.0000,  0.0000,  0.0000)
  21 Ni     1.244508    2.155551   14.064546    ( 0.0000,  0.0000,  0.0000)
  22 Ni     3.733524    2.155551   14.064546    ( 0.0000,  0.0000,  0.0000)
  23 Ni     6.222540    2.155551   14.064546    ( 0.0000,  0.0000,  0.0000)
  24 Ni     2.489016    4.311102   14.064546    ( 0.0000,  0.0000,  0.0000)
  25 Ni     4.978032    4.311102   14.064546    ( 0.0000,  0.0000,  0.0000)
  26 Ni     7.467048    4.311102   14.064546    ( 0.0000,  0.0000,  0.0000)
  27 H      3.733524    3.233326   17.564546    ( 0.0000,  0.0000,  0.0000)
  28 H      3.733524    3.233326   18.304546    ( 0.0000,  0.0000,  0.0000)

Unit cell:
           periodic     x           y           z      points  spacing
  1. axis:    yes    7.467048    0.000000    0.000000    35     0.1848
  2. axis:    yes    3.733524    6.466653    0.000000    35     0.1848
  3. axis:    no     0.000000    0.000000   24.064546   112     0.2149

  Lengths:   7.467048   7.467048  24.064546
  Angles:   90.000000  90.000000  60.000000

Effective grid spacing dv^(1/3) = 0.2038

     iter     time        total  log10-change:
                         energy   eigst   dens
iter:   1 14:15:51  -194.402669
iter:   2 14:16:05  -191.947478   -0.36  -1.54
iter:   3 14:16:19  -192.067897   -0.82  -1.63
iter:   4 14:16:33  -199.788902   -1.09  -1.75
iter:   5 14:16:48  -194.045727   -1.45  -1.72
iter:   6 14:17:02  -191.809877   -2.02  -1.80
iter:   7 14:17:16  -192.752684   -1.47  -1.91
iter:   8 14:17:31  -192.960658   -1.99  -2.04
iter:   9 14:17:45  -189.081630   -2.60  -2.03
iter:  10 14:17:59  -188.721380   -3.11  -2.20
iter:  11 14:18:14  -188.679065   -2.84  -2.27
iter:  12 14:18:28  -188.683473c  -2.70  -2.49
iter:  13 14:18:42  -188.688440c  -3.58  -2.58
iter:  14 14:18:56  -188.623341c  -3.78  -2.61
iter:  15 14:19:10  -188.658854c  -3.96  -2.75
iter:  16 14:19:26  -188.619241c  -4.05  -2.74
iter:  17 14:19:40  -188.678042c  -3.90  -2.81
iter:  18 14:19:54  -188.795440c  -3.63  -2.86
iter:  19 14:20:08  -188.757127c  -3.59  -2.68
iter:  20 14:20:23  -188.641706c  -4.02  -2.72
iter:  21 14:20:37  -188.645139c  -4.58  -3.00
iter:  22 14:20:50  -188.648379c  -4.47  -3.05
iter:  23 14:21:04  -188.641873c  -4.59  -3.07
iter:  24 14:21:18  -188.666856c  -4.23  -3.23
iter:  25 14:21:32  -188.678157c  -4.23  -3.09
iter:  26 14:21:46  -188.636389c  -4.57  -3.02
iter:  27 14:22:00  -188.634586c  -5.22  -3.45
iter:  28 14:22:12  -188.634453c  -5.47  -3.58
iter:  29 14:22:26  -188.632957c  -5.63  -3.60
iter:  30 14:22:40  -188.632630c  -5.64  -3.73
iter:  31 14:22:53  -188.631931c  -5.68  -3.81
iter:  32 14:23:06  -188.632245c  -5.80  -3.92
iter:  33 14:23:19  -188.631731c  -6.31  -4.08c
iter:  34 14:23:32  -188.631879c  -6.75  -4.10c
iter:  35 14:23:45  -188.631747c  -6.80  -4.05c
iter:  36 14:23:59  -188.631729c  -6.97  -4.17c
iter:  37 14:24:14  -188.631623c  -7.01  -4.22c
iter:  38 14:24:29  -188.631595c  -7.23  -4.33c
iter:  39 14:24:43  -188.631621c  -7.15  -4.39c
iter:  40 14:24:56  -188.631859c  -6.74  -4.44c
iter:  41 14:25:11  -188.631641c  -6.88  -4.15c
iter:  42 14:25:25  -188.631637c  -7.60c -4.56c

Converged after 42 iterations.

Dipole moment: (-0.262613, -0.149371, 0.002318) |e|*Ang

Energy contributions relative to reference atoms: (reference = -1116960.938401)

Kinetic:       +159.543963
Potential:     -118.042411
External:        +0.000000
XC:            -232.277627
Entropy (-ST):   -2.741435
Local:           +3.515155
SIC:             +0.000000
--------------------------
Free energy:   -190.002355
Extrapolated:  -188.631637

Showing all kpts
 Kpt  Band  Eigenvalues  Occupancy
  0   215     -1.76601    1.30685
  0   216     -1.76506    1.30256
  0   217     -1.72302    1.10177
  0   218     -1.72058    1.08966

  1   215     -1.74007    1.18523
  1   216     -1.72859    1.12927
  1   217     -1.72299    1.10162
  1   218     -1.72218    1.09759


Fermi level: -1.70260

No gap
No difference between direct/indirect transitions
Timing:                              incl.     excl.
-----------------------------------------------------------
Hamiltonian:                         1.334     0.002   0.0% |
 Atomic:                             0.607     0.002   0.0% |
  XC Correction:                     0.605     0.605   0.1% |
 Calculate atomic Hamiltonians:      0.395     0.395   0.1% |
 Communicate:                        0.000     0.000   0.0% |
 Initialize Hamiltonian:             0.001     0.001   0.0% |
 Poisson:                            0.003     0.003   0.0% |
 XC 3D grid:                         0.325     0.325   0.1% |
LCAO initialization:                40.714     0.038   0.0% |
 LCAO eigensolver:                   3.282     0.000   0.0% |
  Calculate projections:             0.006     0.006   0.0% |
  DenseAtomicCorrection:             0.094     0.094   0.0% |
  Distribute overlap matrix:         0.001     0.001   0.0% |
  Orbital Layouts:                   0.066     0.066   0.0% |
  Potential matrix:                  3.090     3.090   0.5% |
  Sum over cells:                    0.025     0.025   0.0% |
 LCAO to grid:                      36.420    36.420   5.8% |-|
 Set positions (LCAO WFS):           0.975     0.334   0.1% |
  Basic WFS set positions:           0.001     0.001   0.0% |
  Basis functions set positions:     0.000     0.000   0.0% |
  P tci:                             0.445     0.445   0.1% |
  ST tci:                            0.183     0.183   0.0% |
  mktci:                             0.012     0.012   0.0% |
PWDescriptor:                        0.014     0.014   0.0% |
SCF-cycle:                         587.314     0.051   0.0% |
 Davidson:                         479.861    87.975  13.9% |-----|
  Apply H:                          67.581    65.418  10.4% |---|
   HMM T:                            2.163     2.163   0.3% |
  Subspace diag:                    93.838     0.012   0.0% |
   calc_h_matrix:                   77.783    12.776   2.0% ||
    Apply H:                        65.007    62.868  10.0% |---|
     HMM T:                          2.138     2.138   0.3% |
   diagonalize:                      2.798     2.798   0.4% |
   rotate_psi:                      13.245    13.245   2.1% ||
  calc. matrices:                  187.663    57.220   9.1% |---|
   Apply H:                        130.443   126.184  20.0% |-------|
    HMM T:                           4.259     4.259   0.7% |
  diagonalize:                      17.875    17.875   2.8% ||
  rotate_psi:                       24.929    24.929   4.0% |-|
 Density:                           51.774     0.001   0.0% |
  Atomic density matrices:           0.192     0.192   0.0% |
  Mix:                              20.143    20.143   3.2% ||
  Multipole moments:                 0.015     0.015   0.0% |
  Pseudo density:                   31.423    31.161   4.9% |-|
   Symmetrize density:               0.261     0.261   0.0% |
 Hamiltonian:                       54.850     0.109   0.0% |
  Atomic:                           25.147     0.076   0.0% |
   XC Correction:                   25.071    25.071   4.0% |-|
  Calculate atomic Hamiltonians:    16.411    16.411   2.6% ||
  Communicate:                       0.000     0.000   0.0% |
  Poisson:                           0.146     0.146   0.0% |
  XC 3D grid:                       13.036    13.036   2.1% ||
 Orthonormalize:                     0.779     0.000   0.0% |
  calc_s_matrix:                     0.077     0.077   0.0% |
  inverse-cholesky:                  0.011     0.011   0.0% |
  projections:                       0.426     0.426   0.1% |
  rotate_psi_s:                      0.264     0.264   0.0% |
Set symmetry:                        0.001     0.001   0.0% |
Other:                               1.417     1.417   0.2% |
-----------------------------------------------------------
Total:                                       630.794 100.0%

Memory usage: 1.11 GiB
Date: Sat Mar 29 14:25:25 2025
