
  ___ ___ ___ _ _ _  
 |   |   |_  | | | | 
 | | | | | . | | | | 
 |__ |  _|___|_____|  24.6.0
 |___|_|             

User:   kerem@DESKTOP-CMKTO4T
Date:   Sat Mar 29 13:00:32 2025
Arch:   x86_64
Pid:    640
CWD:    /home/kerem
Python: 3.12.9
gpaw:   /home/kerem/miniconda3/envs/gpaw-env/lib/python3.12/site-packages/gpaw
_gpaw:  /home/kerem/miniconda3/envs/gpaw-env/lib/python3.12/site-packages/
        _gpaw.cpython-312-x86_64-linux-gnu.so
ase:    /home/kerem/miniconda3/envs/gpaw-env/lib/python3.12/site-packages/ase (version 3.24.0)
numpy:  /home/kerem/miniconda3/envs/gpaw-env/lib/python3.12/site-packages/numpy (version 1.26.4)
scipy:  /home/kerem/miniconda3/envs/gpaw-env/lib/python3.12/site-packages/scipy (version 1.15.2)
libxc:  6.2.2
units:  Angstrom and eV
cores: 1
OpenMP: True
OMP_NUM_THREADS: 1

Input parameters:
  kpts: [2 2 1]
  mode: {ecut: 400.0,
         name: pw}
  xc: PBE

System changes: positions, numbers, cell, pbc, initial_charges, initial_magmoms 

Initialize ...

species:
  Ni:
    name: Nickel
    id: 0d9f38a9d6e76a2886f07bb4381f212b
    Z: 28.0
    valence: 16
    core: 12
    charge: 0.0
    file: /home/kerem/miniconda3/envs/gpaw-env/share/gpaw/Ni.PBE.gz
    compensation charges: {type: gauss,
                           rc: 0.36,
                           lmax: 2}
    cutoffs: {filter: 2.14,
              core: 1.98}
    projectors:
      #              energy  rcut
      - 4s(2.00)    -5.642   1.164
      - 3p(6.00)   -71.394   1.207
      - 4p(0.00)    -1.226   1.207
      - 3d(8.00)    -8.875   1.138
      -  s          21.570   1.164
      -  d          18.337   1.138
  
    # Using partial waves for Ni as LCAO basis

  H:
    name: Hydrogen
    id: d65de229564ff8ea4db303e23b6d1ecf
    Z: 1.0
    valence: 1
    core: 0
    charge: 0.0
    file: /home/kerem/miniconda3/envs/gpaw-env/share/gpaw/H.PBE.gz
    compensation charges: {type: gauss,
                           rc: 0.15,
                           lmax: 2}
    cutoffs: {filter: 0.85,
              core: 0.53}
    projectors:
      #              energy  rcut
      - 1s(1.00)    -6.494   0.476
      -  s          20.717   0.476
      -  p           0.000   0.476
  
    # Using partial waves for H as LCAO basis

Reference energy: -1116960.938401  # eV

Spin-paired calculation

Convergence criteria:
 Maximum [total energy] change in last 3 cyles: 0.0005 eV / valence electron
 Maximum integral of absolute [dens]ity change: 0.0001 electrons / valence electron
 Maximum integral of absolute [eigenst]ate change: 4e-08 eV^2 / valence electron
 Maximum number of scf [iter]ations: 333
 (Square brackets indicate name in SCF output, whereas a 'c' in
 the SCF output indicates the quantity has converged.)

Symmetries present (total): 2

  ( 1  0  0)  (-1  0  0)
  ( 0  1  0)  (-1  1  0)
  ( 0  0  1)  ( 0  0  1)
Note: your k-points are not as symmetric as your crystal!

4 k-points: 2 x 2 x 1 Monkhorst-Pack grid
2 k-points in the irreducible part of the Brillouin zone
       k-points in crystal coordinates                weights
   0:     0.25000000   -0.25000000    0.00000000          2/4
   1:     0.25000000    0.25000000    0.00000000          2/4

Wave functions: Plane wave expansion
  Cutoff energy: 400.000 eV
  Number of coefficients (min, max): 21105, 21124
  Pulay-stress correction: 0.000000 eV/Ang^3 (de/decut=0.000000)
  Using FFTW library
  ScaLapack parameters: grid=1x1, blocksize=None
  Wavefunction extrapolation:
    Improved wavefunction reuse through dual PAW basis 

Occupation numbers: Fermi-Dirac:
  width: 0.1000  # eV
 

Eigensolver
   Davidson(niter=2) 

Densities:
  Coarse grid: 35*35*112 grid
  Fine grid: 70*70*224 grid
  Total Charge: 0.000000 

Density mixing:
  Method: separate
  Backend: pulay
  Linear mixing parameter: 0.05
  old densities: 5
  Damping of long wavelength oscillations: 50 

Hamiltonian:
  XC and Coulomb potentials evaluated on a 70*70*224 grid
  Using the PBE Exchange-Correlation functional
  External potential:
    NoExternalPotential
 

XC parameters: PBE with 2 nearest neighbor stencil

Memory estimate:
  Process memory now: 1105.61 MiB
  Calculator: 368.46 MiB
    Density: 65.71 MiB
      Arrays: 27.22 MiB
      Localized functions: 28.02 MiB
      Mixer: 10.47 MiB
    Hamiltonian: 18.48 MiB
      Arrays: 17.79 MiB
      XC: 0.00 MiB
      Poisson: 0.00 MiB
      vbar: 0.68 MiB
    Wavefunctions: 284.27 MiB
      Arrays psit_nG: 170.83 MiB
      Eigensolver: 97.75 MiB
      Projections: 4.01 MiB
      Projectors: 5.80 MiB
      PW-descriptor: 5.88 MiB

Total number of cores used: 1

Number of atoms: 29
Number of atomic orbitals: 326
Number of bands in calculation: 265
Number of valence electrons: 434
Bands to converge: occupied

... initialized

Initializing position-dependent things.

Density initialized from atomic densities
Creating initial wave functions:
  265 bands from LCAO basis set

                                         
                                         
                                         
                                         
                                         
                  H                      
                  H                      
                                         
                Ni    Ni    Ni           
           Ni    NNi   NNi   Ni          
       Ni    Ni    Ni                    
            Ni    Ni    Ni               
        Ni    Ni   NNi   Ni    Ni        
                                         
               Ni    Ni    Ni            
           Ni    Ni    Ni                
                                         
                                         
                                         
                                         

Positions:
   0 Ni     1.244508    0.718517   10.000000    ( 0.0000,  0.0000,  0.0000)
   1 Ni     3.733524    0.718517   10.000000    ( 0.0000,  0.0000,  0.0000)
   2 Ni     6.222540    0.718517   10.000000    ( 0.0000,  0.0000,  0.0000)
   3 Ni     2.489016    2.874068   10.000000    ( 0.0000,  0.0000,  0.0000)
   4 Ni     4.978032    2.874068   10.000000    ( 0.0000,  0.0000,  0.0000)
   5 Ni     7.467048    2.874068   10.000000    ( 0.0000,  0.0000,  0.0000)
   6 Ni     3.733524    5.029619   10.000000    ( 0.0000,  0.0000,  0.0000)
   7 Ni     6.222540    5.029619   10.000000    ( 0.0000,  0.0000,  0.0000)
   8 Ni     8.711556    5.029619   10.000000    ( 0.0000,  0.0000,  0.0000)
   9 Ni     0.000000    1.437034   12.032273    ( 0.0000,  0.0000,  0.0000)
  10 Ni     2.489016    1.437034   12.032273    ( 0.0000,  0.0000,  0.0000)
  11 Ni     4.978032    1.437034   12.032273    ( 0.0000,  0.0000,  0.0000)
  12 Ni     1.244508    3.592585   12.032273    ( 0.0000,  0.0000,  0.0000)
  13 Ni     3.733524    3.592585   12.032273    ( 0.0000,  0.0000,  0.0000)
  14 Ni     6.222540    3.592585   12.032273    ( 0.0000,  0.0000,  0.0000)
  15 Ni     2.489016    5.748136   12.032273    ( 0.0000,  0.0000,  0.0000)
  16 Ni     4.978032    5.748136   12.032273    ( 0.0000,  0.0000,  0.0000)
  17 Ni     7.467048    5.748136   12.032273    ( 0.0000,  0.0000,  0.0000)
  18 Ni     0.000000    0.000000   14.064546    ( 0.0000,  0.0000,  0.0000)
  19 Ni     2.489016    0.000000   14.064546    ( 0.0000,  0.0000,  0.0000)
  20 Ni     4.978032    0.000000   14.064546    ( 0.0000,  0.0000,  0.0000)
  21 Ni     1.244508    2.155551   14.064546    ( 0.0000,  0.0000,  0.0000)
  22 Ni     3.733524    2.155551   14.064546    ( 0.0000,  0.0000,  0.0000)
  23 Ni     6.222540    2.155551   14.064546    ( 0.0000,  0.0000,  0.0000)
  24 Ni     2.489016    4.311102   14.064546    ( 0.0000,  0.0000,  0.0000)
  25 Ni     4.978032    4.311102   14.064546    ( 0.0000,  0.0000,  0.0000)
  26 Ni     7.467048    4.311102   14.064546    ( 0.0000,  0.0000,  0.0000)
  27 H      3.733524    3.233326   16.064546    ( 0.0000,  0.0000,  0.0000)
  28 H      3.733524    3.233326   16.804546    ( 0.0000,  0.0000,  0.0000)

Unit cell:
           periodic     x           y           z      points  spacing
  1. axis:    yes    7.467048    0.000000    0.000000    35     0.1848
  2. axis:    yes    3.733524    6.466653    0.000000    35     0.1848
  3. axis:    no     0.000000    0.000000   24.064546   112     0.2149

  Lengths:   7.467048   7.467048  24.064546
  Angles:   90.000000  90.000000  60.000000

Effective grid spacing dv^(1/3) = 0.2038

     iter     time        total  log10-change:
                         energy   eigst   dens
iter:   1 13:01:31  -194.088388
iter:   2 13:01:47  -191.689220   -0.36  -1.54
iter:   3 13:02:03  -192.677864   -0.82  -1.63
iter:   4 13:02:18  -212.075840   -1.01  -1.75
iter:   5 13:02:34  -192.582785   -1.50  -1.63
iter:   6 13:03:03  -189.304089   -1.99  -1.83
iter:   7 13:03:22  -192.945034   -1.59  -1.94
iter:   8 13:03:45  -189.726182   -2.34  -1.98
iter:   9 13:04:03  -188.924786   -2.71  -2.12
iter:  10 13:04:23  -189.591959   -2.66  -2.23
iter:  11 13:04:44  -188.739790   -2.78  -2.24
iter:  12 13:05:01  -189.394387   -2.57  -2.41
iter:  13 13:05:17  -188.553642   -3.28  -2.37
iter:  14 13:05:32  -188.546907   -3.81  -2.79
iter:  15 13:05:53  -188.581031c  -4.06  -2.83
iter:  16 13:06:09  -188.538848c  -4.12  -2.75
iter:  17 13:06:25  -188.549424c  -3.91  -2.91
iter:  18 13:06:46  -188.526954c  -4.56  -2.94
iter:  19 13:07:03  -188.532773c  -4.62  -3.03
iter:  20 13:07:18  -188.561607c  -4.38  -3.09
iter:  21 13:07:33  -188.548777c  -4.28  -2.97
iter:  22 13:07:48  -188.539099c  -4.41  -3.06
iter:  23 13:08:04  -188.536374c  -4.94  -3.12
iter:  24 13:08:25  -188.536221c  -4.91  -3.20
iter:  25 13:08:42  -188.534281c  -5.07  -3.24
iter:  26 13:09:04  -188.531103c  -5.34  -3.35
iter:  27 13:09:22  -188.576916c  -4.39  -3.49
iter:  28 13:09:48  -188.528606c  -4.67  -3.02
iter:  29 13:10:05  -188.528258c  -5.62  -3.70
iter:  30 13:10:25  -188.527831c  -6.10  -3.78
iter:  31 13:10:43  -188.527696c  -6.51  -3.88
iter:  32 13:11:05  -188.527786c  -6.99  -3.93
iter:  33 13:11:21  -188.527852c  -6.20  -3.96
iter:  34 13:11:42  -188.529437c  -5.84  -3.99
iter:  35 13:11:58  -188.527827c  -6.13  -3.71
iter:  36 13:12:24  -188.527878c  -6.83  -4.07c
iter:  37 13:12:45  -188.527829c  -7.05  -4.09c
iter:  38 13:13:02  -188.527987c  -6.65  -4.14c
iter:  39 13:13:24  -188.527914c  -7.08  -4.17c
iter:  40 13:13:44  -188.527981c  -7.00  -4.26c
iter:  41 13:14:07  -188.528054c  -6.75  -4.25c
iter:  42 13:14:29  -188.527954c  -7.15  -4.17c
iter:  43 13:14:44  -188.527961c  -7.31  -4.44c
iter:  44 13:15:05  -188.527954c  -7.61c -4.37c

Converged after 44 iterations.

Dipole moment: (-0.331592, -0.151067, 0.090135) |e|*Ang

Energy contributions relative to reference atoms: (reference = -1116960.938401)

Kinetic:       +162.077729
Potential:     -119.691116
External:        +0.000000
XC:            -233.075416
Entropy (-ST):   -2.729572
Local:           +3.525635
SIC:             +0.000000
--------------------------
Free energy:   -189.892740
Extrapolated:  -188.527954

Showing all kpts
 Kpt  Band  Eigenvalues  Occupancy
  0   215     -1.68353    1.31793
  0   216     -1.68123    1.30753
  0   217     -1.63860    1.10429
  0   218     -1.63620    1.09241

  1   215     -1.65580    1.18840
  1   216     -1.64425    1.13217
  1   217     -1.63951    1.10879
  1   218     -1.63809    1.10177


Fermi level: -1.61766

No gap
No difference between direct/indirect transitions
Timing:                              incl.     excl.
-----------------------------------------------------------
Hamiltonian:                         1.480     0.003   0.0% |
 Atomic:                             0.657     0.004   0.0% |
  XC Correction:                     0.653     0.653   0.1% |
 Calculate atomic Hamiltonians:      0.423     0.423   0.0% |
 Communicate:                        0.000     0.000   0.0% |
 Initialize Hamiltonian:             0.001     0.001   0.0% |
 Poisson:                            0.004     0.004   0.0% |
 XC 3D grid:                         0.392     0.392   0.0% |
LCAO initialization:                41.405     0.038   0.0% |
 LCAO eigensolver:                   3.713     0.001   0.0% |
  Calculate projections:             0.007     0.007   0.0% |
  DenseAtomicCorrection:             0.252     0.252   0.0% |
  Distribute overlap matrix:         0.001     0.001   0.0% |
  Orbital Layouts:                   0.081     0.081   0.0% |
  Potential matrix:                  3.338     3.338   0.4% |
  Sum over cells:                    0.033     0.033   0.0% |
 LCAO to grid:                      36.431    36.431   4.2% |-|
 Set positions (LCAO WFS):           1.222     0.444   0.1% |
  Basic WFS set positions:           0.001     0.001   0.0% |
  Basis functions set positions:     0.000     0.000   0.0% |
  P tci:                             0.551     0.551   0.1% |
  ST tci:                            0.212     0.212   0.0% |
  mktci:                             0.014     0.014   0.0% |
PWDescriptor:                        0.018     0.018   0.0% |
SCF-cycle:                         828.592     0.067   0.0% |
 Davidson:                         701.003   177.220  20.3% |-------|
  Apply H:                          77.476    75.025   8.6% |--|
   HMM T:                            2.451     2.451   0.3% |
  Subspace diag:                   126.592     0.015   0.0% |
   calc_h_matrix:                   96.496    16.565   1.9% ||
    Apply H:                        79.931    77.472   8.9% |---|
     HMM T:                          2.459     2.459   0.3% |
   diagonalize:                     11.524    11.524   1.3% ||
   rotate_psi:                      18.556    18.556   2.1% ||
  calc. matrices:                  253.982    88.020  10.1% |---|
   Apply H:                        165.962   161.040  18.4% |------|
    HMM T:                           4.923     4.923   0.6% |
  diagonalize:                      31.087    31.087   3.6% ||
  rotate_psi:                       34.646    34.646   4.0% |-|
 Density:                           59.919     0.001   0.0% |
  Atomic density matrices:           0.211     0.211   0.0% |
  Mix:                              24.977    24.977   2.9% ||
  Multipole moments:                 0.018     0.018   0.0% |
  Pseudo density:                   34.712    34.428   3.9% |-|
   Symmetrize density:               0.285     0.285   0.0% |
 Hamiltonian:                       66.818     0.121   0.0% |
  Atomic:                           27.981     0.092   0.0% |
   XC Correction:                   27.889    27.889   3.2% ||
  Calculate atomic Hamiltonians:    21.910    21.910   2.5% ||
  Communicate:                       0.000     0.000   0.0% |
  Poisson:                           0.168     0.168   0.0% |
  XC 3D grid:                       16.638    16.638   1.9% ||
 Orthonormalize:                     0.785     0.000   0.0% |
  calc_s_matrix:                     0.095     0.095   0.0% |
  inverse-cholesky:                  0.009     0.009   0.0% |
  projections:                       0.404     0.404   0.0% |
  rotate_psi_s:                      0.277     0.277   0.0% |
Set symmetry:                        0.001     0.001   0.0% |
Other:                               1.544     1.544   0.2% |
-----------------------------------------------------------
Total:                                       873.039 100.0%

Memory usage: 1.11 GiB
Date: Sat Mar 29 13:15:05 2025
