
  ___ ___ ___ _ _ _  
 |   |   |_  | | | | 
 | | | | | . | | | | 
 |__ |  _|___|_____|  24.6.0
 |___|_|             

User:   kerem@DESKTOP-CMKTO4T
Date:   Sat Mar 29 19:11:23 2025
Arch:   x86_64
Pid:    1486
CWD:    /home/kerem
Python: 3.12.9
gpaw:   /home/kerem/miniconda3/envs/gpaw-env/lib/python3.12/site-packages/gpaw
_gpaw:  /home/kerem/miniconda3/envs/gpaw-env/lib/python3.12/site-packages/
        _gpaw.cpython-312-x86_64-linux-gnu.so
ase:    /home/kerem/miniconda3/envs/gpaw-env/lib/python3.12/site-packages/ase (version 3.24.0)
numpy:  /home/kerem/miniconda3/envs/gpaw-env/lib/python3.12/site-packages/numpy (version 1.26.4)
scipy:  /home/kerem/miniconda3/envs/gpaw-env/lib/python3.12/site-packages/scipy (version 1.15.2)
libxc:  6.2.2
units:  Angstrom and eV
cores: 1
OpenMP: True
OMP_NUM_THREADS: 1

Input parameters:
  kpts: [2 2 1]
  mode: {ecut: 400.0,
         name: pw}
  xc: PBE

System changes: positions, numbers, cell, pbc, initial_charges, initial_magmoms 

Initialize ...

species:
  Ni:
    name: Nickel
    id: 0d9f38a9d6e76a2886f07bb4381f212b
    Z: 28.0
    valence: 16
    core: 12
    charge: 0.0
    file: /home/kerem/miniconda3/envs/gpaw-env/share/gpaw/Ni.PBE.gz
    compensation charges: {type: gauss,
                           rc: 0.36,
                           lmax: 2}
    cutoffs: {filter: 2.14,
              core: 1.98}
    projectors:
      #              energy  rcut
      - 4s(2.00)    -5.642   1.164
      - 3p(6.00)   -71.394   1.207
      - 4p(0.00)    -1.226   1.207
      - 3d(8.00)    -8.875   1.138
      -  s          21.570   1.164
      -  d          18.337   1.138
  
    # Using partial waves for Ni as LCAO basis

  H:
    name: Hydrogen
    id: d65de229564ff8ea4db303e23b6d1ecf
    Z: 1.0
    valence: 1
    core: 0
    charge: 0.0
    file: /home/kerem/miniconda3/envs/gpaw-env/share/gpaw/H.PBE.gz
    compensation charges: {type: gauss,
                           rc: 0.15,
                           lmax: 2}
    cutoffs: {filter: 0.85,
              core: 0.53}
    projectors:
      #              energy  rcut
      - 1s(1.00)    -6.494   0.476
      -  s          20.717   0.476
      -  p           0.000   0.476
  
    # Using partial waves for H as LCAO basis

Reference energy: -1116960.938401  # eV

Spin-paired calculation

Convergence criteria:
 Maximum [total energy] change in last 3 cyles: 0.0005 eV / valence electron
 Maximum integral of absolute [dens]ity change: 0.0001 electrons / valence electron
 Maximum integral of absolute [eigenst]ate change: 4e-08 eV^2 / valence electron
 Maximum number of scf [iter]ations: 333
 (Square brackets indicate name in SCF output, whereas a 'c' in
 the SCF output indicates the quantity has converged.)

Symmetries present (total): 2

  ( 1  0  0)  (-1  0  0)
  ( 0  1  0)  (-1  1  0)
  ( 0  0  1)  ( 0  0  1)
Note: your k-points are not as symmetric as your crystal!

4 k-points: 2 x 2 x 1 Monkhorst-Pack grid
2 k-points in the irreducible part of the Brillouin zone
       k-points in crystal coordinates                weights
   0:     0.25000000   -0.25000000    0.00000000          2/4
   1:     0.25000000    0.25000000    0.00000000          2/4

Wave functions: Plane wave expansion
  Cutoff energy: 400.000 eV
  Number of coefficients (min, max): 21105, 21124
  Pulay-stress correction: 0.000000 eV/Ang^3 (de/decut=0.000000)
  Using FFTW library
  ScaLapack parameters: grid=1x1, blocksize=None
  Wavefunction extrapolation:
    Improved wavefunction reuse through dual PAW basis 

Occupation numbers: Fermi-Dirac:
  width: 0.1000  # eV
 

Eigensolver
   Davidson(niter=2) 

Densities:
  Coarse grid: 35*35*112 grid
  Fine grid: 70*70*224 grid
  Total Charge: 0.000000 

Density mixing:
  Method: separate
  Backend: pulay
  Linear mixing parameter: 0.05
  old densities: 5
  Damping of long wavelength oscillations: 50 

Hamiltonian:
  XC and Coulomb potentials evaluated on a 70*70*224 grid
  Using the PBE Exchange-Correlation functional
  External potential:
    NoExternalPotential
 

XC parameters: PBE with 2 nearest neighbor stencil

Memory estimate:
  Process memory now: 1032.15 MiB
  Calculator: 368.46 MiB
    Density: 65.71 MiB
      Arrays: 27.22 MiB
      Localized functions: 28.02 MiB
      Mixer: 10.47 MiB
    Hamiltonian: 18.48 MiB
      Arrays: 17.79 MiB
      XC: 0.00 MiB
      Poisson: 0.00 MiB
      vbar: 0.68 MiB
    Wavefunctions: 284.27 MiB
      Arrays psit_nG: 170.83 MiB
      Eigensolver: 97.75 MiB
      Projections: 4.01 MiB
      Projectors: 5.80 MiB
      PW-descriptor: 5.88 MiB

Total number of cores used: 1

Number of atoms: 29
Number of atomic orbitals: 326
Number of bands in calculation: 265
Number of valence electrons: 434
Bands to converge: occupied

... initialized

Initializing position-dependent things.

Density initialized from atomic densities
Creating initial wave functions:
  265 bands from LCAO basis set

                                         
                                         
                                         
                                         
                                         
                  H                      
                  H                      
                                         
                                         
                                         
                                         
                                         
                                         
                                         
                                         
                                         
                                         
                                         
                                         
                                         
                                         
                                         
                                         
                                         
                                         
                                         
                                         
                                         
                                         
                Ni    Ni    Ni           
           Ni    NNi   NNi   Ni          
       Ni    Ni    Ni                    
            Ni    Ni    Ni               
        Ni    Ni   NNi   Ni    Ni        
                                         
               Ni    Ni    Ni            
           Ni    Ni    Ni                
                                         
                                         
                                         
                                         

Positions:
   0 Ni     1.244508    0.718517   10.000000    ( 0.0000,  0.0000,  0.0000)
   1 Ni     3.733524    0.718517   10.000000    ( 0.0000,  0.0000,  0.0000)
   2 Ni     6.222540    0.718517   10.000000    ( 0.0000,  0.0000,  0.0000)
   3 Ni     2.489016    2.874068   10.000000    ( 0.0000,  0.0000,  0.0000)
   4 Ni     4.978032    2.874068   10.000000    ( 0.0000,  0.0000,  0.0000)
   5 Ni     7.467048    2.874068   10.000000    ( 0.0000,  0.0000,  0.0000)
   6 Ni     3.733524    5.029619   10.000000    ( 0.0000,  0.0000,  0.0000)
   7 Ni     6.222540    5.029619   10.000000    ( 0.0000,  0.0000,  0.0000)
   8 Ni     8.711556    5.029619   10.000000    ( 0.0000,  0.0000,  0.0000)
   9 Ni     0.000000    1.437034   12.032273    ( 0.0000,  0.0000,  0.0000)
  10 Ni     2.489016    1.437034   12.032273    ( 0.0000,  0.0000,  0.0000)
  11 Ni     4.978032    1.437034   12.032273    ( 0.0000,  0.0000,  0.0000)
  12 Ni     1.244508    3.592585   12.032273    ( 0.0000,  0.0000,  0.0000)
  13 Ni     3.733524    3.592585   12.032273    ( 0.0000,  0.0000,  0.0000)
  14 Ni     6.222540    3.592585   12.032273    ( 0.0000,  0.0000,  0.0000)
  15 Ni     2.489016    5.748136   12.032273    ( 0.0000,  0.0000,  0.0000)
  16 Ni     4.978032    5.748136   12.032273    ( 0.0000,  0.0000,  0.0000)
  17 Ni     7.467048    5.748136   12.032273    ( 0.0000,  0.0000,  0.0000)
  18 Ni     0.000000    0.000000   14.064546    ( 0.0000,  0.0000,  0.0000)
  19 Ni     2.489016    0.000000   14.064546    ( 0.0000,  0.0000,  0.0000)
  20 Ni     4.978032    0.000000   14.064546    ( 0.0000,  0.0000,  0.0000)
  21 Ni     1.244508    2.155551   14.064546    ( 0.0000,  0.0000,  0.0000)
  22 Ni     3.733524    2.155551   14.064546    ( 0.0000,  0.0000,  0.0000)
  23 Ni     6.222540    2.155551   14.064546    ( 0.0000,  0.0000,  0.0000)
  24 Ni     2.489016    4.311102   14.064546    ( 0.0000,  0.0000,  0.0000)
  25 Ni     4.978032    4.311102   14.064546    ( 0.0000,  0.0000,  0.0000)
  26 Ni     7.467048    4.311102   14.064546    ( 0.0000,  0.0000,  0.0000)
  27 H      3.733524    3.233326   33.064546    ( 0.0000,  0.0000,  0.0000)
  28 H      3.733524    3.233326   33.804546    ( 0.0000,  0.0000,  0.0000)

Unit cell:
           periodic     x           y           z      points  spacing
  1. axis:    yes    7.467048    0.000000    0.000000    35     0.1848
  2. axis:    yes    3.733524    6.466653    0.000000    35     0.1848
  3. axis:    no     0.000000    0.000000   24.064546   112     0.2149

  Lengths:   7.467048   7.467048  24.064546
  Angles:   90.000000  90.000000  60.000000

Effective grid spacing dv^(1/3) = 0.2038

     iter     time        total  log10-change:
                         energy   eigst   dens
iter:   1 19:12:16  -191.943238
iter:   2 19:12:30  -189.810792   -0.35  -1.54
iter:   3 19:12:43  -209.143176   -0.80  -1.63
iter:   4 19:12:56  -190.304112   -1.14  -1.67
iter:   5 19:13:11  -192.503435   -1.36  -1.79
iter:   6 19:13:23  -190.610482   -1.77  -1.83
iter:   7 19:13:38  -187.859182   -1.82  -1.89
iter:   8 19:13:51  -196.241404   -1.64  -1.94
iter:   9 19:14:04  -189.080329   -2.27  -1.88
iter:  10 19:14:19  -188.296261   -2.15  -2.07
iter:  11 19:14:32  -187.098473   -2.40  -2.13
iter:  12 19:14:46  -186.770045   -2.69  -2.20
iter:  13 19:14:59  -186.519952   -3.03  -2.30
iter:  14 19:15:12  -186.476151   -3.11  -2.43
iter:  15 19:15:26  -186.451200c  -3.27  -2.54
iter:  16 19:15:39  -187.194974   -3.19  -2.60
iter:  17 19:15:54  -186.526718   -3.16  -2.41
iter:  18 19:16:06  -186.434457   -3.60  -2.64
iter:  19 19:16:19  -186.402219c  -3.81  -2.77
iter:  20 19:16:33  -186.382465c  -4.69  -2.80
iter:  21 19:16:46  -186.388028c  -4.67  -2.86
iter:  22 19:17:01  -186.403077c  -4.25  -2.90
iter:  23 19:17:14  -186.372942c  -4.05  -2.90
iter:  24 19:17:27  -186.364725c  -4.58  -3.19
iter:  25 19:17:41  -186.365217c  -5.48  -3.34
iter:  26 19:17:54  -186.380550c  -4.87  -3.37
iter:  27 19:18:08  -186.367553c  -4.83  -3.16
iter:  28 19:18:21  -186.365994c  -5.40  -3.43
iter:  29 19:18:34  -186.366419c  -5.82  -3.52
iter:  30 19:18:48  -186.367395c  -5.63  -3.57
iter:  31 19:19:01  -186.369319c  -5.41  -3.64
iter:  32 19:19:15  -186.367883c  -5.59  -3.58
iter:  33 19:19:28  -186.367859c  -6.01  -3.70
iter:  34 19:19:41  -186.367506c  -6.58  -3.85
iter:  35 19:19:55  -186.367697c  -6.40  -3.92
iter:  36 19:20:08  -186.367549c  -6.36  -3.97
iter:  37 19:20:22  -186.367297c  -6.53  -4.02c
iter:  38 19:20:35  -186.367183c  -6.35  -4.01c
iter:  39 19:20:48  -186.367103c  -6.71  -3.97
iter:  40 19:21:02  -186.366638c  -6.74  -4.13c
iter:  41 19:21:15  -186.366467c  -6.82  -4.19c
iter:  42 19:21:28  -186.366345c  -7.17  -4.23c
iter:  43 19:21:42  -186.366156c  -7.20  -4.29c
iter:  44 19:21:55  -186.366182c  -6.65  -4.33c
iter:  45 19:22:09  -186.366355c  -6.56  -4.08c
iter:  46 19:22:22  -186.365956c  -7.03  -4.30c
iter:  47 19:22:35  -186.365906c  -7.63c -4.47c

Converged after 47 iterations.

Dipole moment: (-0.369326, -0.167284, -0.045507) |e|*Ang

Energy contributions relative to reference atoms: (reference = -1116960.938401)

Kinetic:       +186.422834
Potential:     -135.664865
External:        +0.000000
XC:            -239.303595
Entropy (-ST):   -2.614042
Local:           +3.486741
SIC:             +0.000000
--------------------------
Free energy:   -187.672927
Extrapolated:  -186.365906

Showing all kpts
 Kpt  Band  Eigenvalues  Occupancy
  0   215     -1.72602    1.34609
  0   216     -1.68816    1.17002
  0   217     -1.67933    1.12684
  0   218     -1.65640    1.01290

  1   215     -1.70642    1.25710
  1   216     -1.69930    1.22352
  1   217     -1.69107    1.18410
  1   218     -1.68163    1.13812


Fermi level: -1.65382

No gap
No difference between direct/indirect transitions
Timing:                              incl.     excl.
-----------------------------------------------------------
Hamiltonian:                         1.313     0.003   0.0% |
 Atomic:                             0.601     0.002   0.0% |
  XC Correction:                     0.599     0.599   0.1% |
 Calculate atomic Hamiltonians:      0.375     0.375   0.1% |
 Communicate:                        0.000     0.000   0.0% |
 Initialize Hamiltonian:             0.001     0.001   0.0% |
 Poisson:                            0.003     0.003   0.0% |
 XC 3D grid:                         0.330     0.330   0.0% |
LCAO initialization:                38.916     0.035   0.0% |
 LCAO eigensolver:                   3.235     0.001   0.0% |
  Calculate projections:             0.005     0.005   0.0% |
  DenseAtomicCorrection:             0.126     0.126   0.0% |
  Distribute overlap matrix:         0.001     0.001   0.0% |
  Orbital Layouts:                   0.073     0.073   0.0% |
  Potential matrix:                  3.005     3.005   0.4% |
  Sum over cells:                    0.024     0.024   0.0% |
 LCAO to grid:                      34.607    34.607   5.1% |-|
 Set positions (LCAO WFS):           1.038     0.418   0.1% |
  Basic WFS set positions:           0.001     0.001   0.0% |
  Basis functions set positions:     0.000     0.000   0.0% |
  P tci:                             0.425     0.425   0.1% |
  ST tci:                            0.181     0.181   0.0% |
  mktci:                             0.012     0.012   0.0% |
PWDescriptor:                        0.014     0.014   0.0% |
SCF-cycle:                         630.427     0.048   0.0% |
 Davidson:                         513.479    93.400  13.9% |-----|
  Apply H:                          70.875    68.798  10.2% |---|
   HMM T:                            2.077     2.077   0.3% |
  Subspace diag:                    98.930     0.013   0.0% |
   calc_h_matrix:                   81.033    16.475   2.5% ||
    Apply H:                        64.558    62.513   9.3% |---|
     HMM T:                          2.045     2.045   0.3% |
   diagonalize:                      3.324     3.324   0.5% |
   rotate_psi:                      14.560    14.560   2.2% ||
  calc. matrices:                  209.074    68.925  10.3% |---|
   Apply H:                        140.149   136.021  20.2% |-------|
    HMM T:                           4.128     4.128   0.6% |
  diagonalize:                      17.174    17.174   2.6% ||
  rotate_psi:                       24.026    24.026   3.6% ||
 Density:                           55.248     0.001   0.0% |
  Atomic density matrices:           0.222     0.222   0.0% |
  Mix:                              22.387    22.387   3.3% ||
  Multipole moments:                 0.018     0.018   0.0% |
  Pseudo density:                   32.620    32.344   4.8% |-|
   Symmetrize density:               0.275     0.275   0.0% |
 Hamiltonian:                       61.040     0.116   0.0% |
  Atomic:                           27.176     0.080   0.0% |
   XC Correction:                   27.097    27.097   4.0% |-|
  Calculate atomic Hamiltonians:    18.778    18.778   2.8% ||
  Communicate:                       0.000     0.000   0.0% |
  Poisson:                           0.161     0.161   0.0% |
  XC 3D grid:                       14.808    14.808   2.2% ||
 Orthonormalize:                     0.612     0.000   0.0% |
  calc_s_matrix:                     0.073     0.073   0.0% |
  inverse-cholesky:                  0.008     0.008   0.0% |
  projections:                       0.295     0.295   0.0% |
  rotate_psi_s:                      0.236     0.236   0.0% |
Set symmetry:                        0.001     0.001   0.0% |
Other:                               1.372     1.372   0.2% |
-----------------------------------------------------------
Total:                                       672.043 100.0%

Memory usage: 1.01 GiB
Date: Sat Mar 29 19:22:35 2025
