
  ___ ___ ___ _ _ _  
 |   |   |_  | | | | 
 | | | | | . | | | | 
 |__ |  _|___|_____|  24.6.0
 |___|_|             

User:   kerem@DESKTOP-CMKTO4T
Date:   Sat Mar 29 13:26:15 2025
Arch:   x86_64
Pid:    640
CWD:    /home/kerem
Python: 3.12.9
gpaw:   /home/kerem/miniconda3/envs/gpaw-env/lib/python3.12/site-packages/gpaw
_gpaw:  /home/kerem/miniconda3/envs/gpaw-env/lib/python3.12/site-packages/
        _gpaw.cpython-312-x86_64-linux-gnu.so
ase:    /home/kerem/miniconda3/envs/gpaw-env/lib/python3.12/site-packages/ase (version 3.24.0)
numpy:  /home/kerem/miniconda3/envs/gpaw-env/lib/python3.12/site-packages/numpy (version 1.26.4)
scipy:  /home/kerem/miniconda3/envs/gpaw-env/lib/python3.12/site-packages/scipy (version 1.15.2)
libxc:  6.2.2
units:  Angstrom and eV
cores: 1
OpenMP: True
OMP_NUM_THREADS: 1

Input parameters:
  kpts: [2 2 1]
  mode: {ecut: 400.0,
         name: pw}
  xc: PBE

System changes: positions, numbers, cell, pbc, initial_charges, initial_magmoms 

Initialize ...

species:
  Ni:
    name: Nickel
    id: 0d9f38a9d6e76a2886f07bb4381f212b
    Z: 28.0
    valence: 16
    core: 12
    charge: 0.0
    file: /home/kerem/miniconda3/envs/gpaw-env/share/gpaw/Ni.PBE.gz
    compensation charges: {type: gauss,
                           rc: 0.36,
                           lmax: 2}
    cutoffs: {filter: 2.14,
              core: 1.98}
    projectors:
      #              energy  rcut
      - 4s(2.00)    -5.642   1.164
      - 3p(6.00)   -71.394   1.207
      - 4p(0.00)    -1.226   1.207
      - 3d(8.00)    -8.875   1.138
      -  s          21.570   1.164
      -  d          18.337   1.138
  
    # Using partial waves for Ni as LCAO basis

  H:
    name: Hydrogen
    id: d65de229564ff8ea4db303e23b6d1ecf
    Z: 1.0
    valence: 1
    core: 0
    charge: 0.0
    file: /home/kerem/miniconda3/envs/gpaw-env/share/gpaw/H.PBE.gz
    compensation charges: {type: gauss,
                           rc: 0.15,
                           lmax: 2}
    cutoffs: {filter: 0.85,
              core: 0.53}
    projectors:
      #              energy  rcut
      - 1s(1.00)    -6.494   0.476
      -  s          20.717   0.476
      -  p           0.000   0.476
  
    # Using partial waves for H as LCAO basis

Reference energy: -1116960.938401  # eV

Spin-paired calculation

Convergence criteria:
 Maximum [total energy] change in last 3 cyles: 0.0005 eV / valence electron
 Maximum integral of absolute [dens]ity change: 0.0001 electrons / valence electron
 Maximum integral of absolute [eigenst]ate change: 4e-08 eV^2 / valence electron
 Maximum number of scf [iter]ations: 333
 (Square brackets indicate name in SCF output, whereas a 'c' in
 the SCF output indicates the quantity has converged.)

Symmetries present (total): 2

  ( 1  0  0)  (-1  0  0)
  ( 0  1  0)  (-1  1  0)
  ( 0  0  1)  ( 0  0  1)
Note: your k-points are not as symmetric as your crystal!

4 k-points: 2 x 2 x 1 Monkhorst-Pack grid
2 k-points in the irreducible part of the Brillouin zone
       k-points in crystal coordinates                weights
   0:     0.25000000   -0.25000000    0.00000000          2/4
   1:     0.25000000    0.25000000    0.00000000          2/4

Wave functions: Plane wave expansion
  Cutoff energy: 400.000 eV
  Number of coefficients (min, max): 21105, 21124
  Pulay-stress correction: 0.000000 eV/Ang^3 (de/decut=0.000000)
  Using FFTW library
  ScaLapack parameters: grid=1x1, blocksize=None
  Wavefunction extrapolation:
    Improved wavefunction reuse through dual PAW basis 

Occupation numbers: Fermi-Dirac:
  width: 0.1000  # eV
 

Eigensolver
   Davidson(niter=2) 

Densities:
  Coarse grid: 35*35*112 grid
  Fine grid: 70*70*224 grid
  Total Charge: 0.000000 

Density mixing:
  Method: separate
  Backend: pulay
  Linear mixing parameter: 0.05
  old densities: 5
  Damping of long wavelength oscillations: 50 

Hamiltonian:
  XC and Coulomb potentials evaluated on a 70*70*224 grid
  Using the PBE Exchange-Correlation functional
  External potential:
    NoExternalPotential
 

XC parameters: PBE with 2 nearest neighbor stencil

Memory estimate:
  Process memory now: 1131.55 MiB
  Calculator: 368.46 MiB
    Density: 65.71 MiB
      Arrays: 27.22 MiB
      Localized functions: 28.02 MiB
      Mixer: 10.47 MiB
    Hamiltonian: 18.48 MiB
      Arrays: 17.79 MiB
      XC: 0.00 MiB
      Poisson: 0.00 MiB
      vbar: 0.68 MiB
    Wavefunctions: 284.27 MiB
      Arrays psit_nG: 170.83 MiB
      Eigensolver: 97.75 MiB
      Projections: 4.01 MiB
      Projectors: 5.80 MiB
      PW-descriptor: 5.88 MiB

Total number of cores used: 1

Number of atoms: 29
Number of atomic orbitals: 326
Number of bands in calculation: 265
Number of valence electrons: 434
Bands to converge: occupied

... initialized

Initializing position-dependent things.

Density initialized from atomic densities
Creating initial wave functions:
  265 bands from LCAO basis set

                                         
                                         
                                         
                                         
                                         
                  H                      
                  H                      
                                         
                                         
                Ni    Ni    Ni           
           Ni    NNi   NNi   Ni          
       Ni    Ni    Ni                    
            Ni    Ni    Ni               
        Ni    Ni   NNi   Ni    Ni        
                                         
               Ni    Ni    Ni            
           Ni    Ni    Ni                
                                         
                                         
                                         
                                         

Positions:
   0 Ni     1.244508    0.718517   10.000000    ( 0.0000,  0.0000,  0.0000)
   1 Ni     3.733524    0.718517   10.000000    ( 0.0000,  0.0000,  0.0000)
   2 Ni     6.222540    0.718517   10.000000    ( 0.0000,  0.0000,  0.0000)
   3 Ni     2.489016    2.874068   10.000000    ( 0.0000,  0.0000,  0.0000)
   4 Ni     4.978032    2.874068   10.000000    ( 0.0000,  0.0000,  0.0000)
   5 Ni     7.467048    2.874068   10.000000    ( 0.0000,  0.0000,  0.0000)
   6 Ni     3.733524    5.029619   10.000000    ( 0.0000,  0.0000,  0.0000)
   7 Ni     6.222540    5.029619   10.000000    ( 0.0000,  0.0000,  0.0000)
   8 Ni     8.711556    5.029619   10.000000    ( 0.0000,  0.0000,  0.0000)
   9 Ni     0.000000    1.437034   12.032273    ( 0.0000,  0.0000,  0.0000)
  10 Ni     2.489016    1.437034   12.032273    ( 0.0000,  0.0000,  0.0000)
  11 Ni     4.978032    1.437034   12.032273    ( 0.0000,  0.0000,  0.0000)
  12 Ni     1.244508    3.592585   12.032273    ( 0.0000,  0.0000,  0.0000)
  13 Ni     3.733524    3.592585   12.032273    ( 0.0000,  0.0000,  0.0000)
  14 Ni     6.222540    3.592585   12.032273    ( 0.0000,  0.0000,  0.0000)
  15 Ni     2.489016    5.748136   12.032273    ( 0.0000,  0.0000,  0.0000)
  16 Ni     4.978032    5.748136   12.032273    ( 0.0000,  0.0000,  0.0000)
  17 Ni     7.467048    5.748136   12.032273    ( 0.0000,  0.0000,  0.0000)
  18 Ni     0.000000    0.000000   14.064546    ( 0.0000,  0.0000,  0.0000)
  19 Ni     2.489016    0.000000   14.064546    ( 0.0000,  0.0000,  0.0000)
  20 Ni     4.978032    0.000000   14.064546    ( 0.0000,  0.0000,  0.0000)
  21 Ni     1.244508    2.155551   14.064546    ( 0.0000,  0.0000,  0.0000)
  22 Ni     3.733524    2.155551   14.064546    ( 0.0000,  0.0000,  0.0000)
  23 Ni     6.222540    2.155551   14.064546    ( 0.0000,  0.0000,  0.0000)
  24 Ni     2.489016    4.311102   14.064546    ( 0.0000,  0.0000,  0.0000)
  25 Ni     4.978032    4.311102   14.064546    ( 0.0000,  0.0000,  0.0000)
  26 Ni     7.467048    4.311102   14.064546    ( 0.0000,  0.0000,  0.0000)
  27 H      3.733524    3.233326   16.464546    ( 0.0000,  0.0000,  0.0000)
  28 H      3.733524    3.233326   17.204546    ( 0.0000,  0.0000,  0.0000)

Unit cell:
           periodic     x           y           z      points  spacing
  1. axis:    yes    7.467048    0.000000    0.000000    35     0.1848
  2. axis:    yes    3.733524    6.466653    0.000000    35     0.1848
  3. axis:    no     0.000000    0.000000   24.064546   112     0.2149

  Lengths:   7.467048   7.467048  24.064546
  Angles:   90.000000  90.000000  60.000000

Effective grid spacing dv^(1/3) = 0.2038

     iter     time        total  log10-change:
                         energy   eigst   dens
iter:   1 13:27:15  -194.217730
iter:   2 13:27:36  -191.810365   -0.36  -1.54
iter:   3 13:27:53  -192.289825   -0.82  -1.63
iter:   4 13:28:13  -207.258712   -1.03  -1.75
iter:   5 13:28:34  -192.455547   -1.50  -1.66
iter:   6 13:28:51  -189.452425   -2.05  -1.83
iter:   7 13:29:12  -191.487502   -1.64  -1.94
iter:   8 13:29:28  -189.533233   -2.30  -2.03
iter:   9 13:29:44  -188.888243   -2.85  -2.15
iter:  10 13:30:10  -189.639133   -2.22  -2.23
iter:  11 13:30:27  -189.577349   -2.47  -2.34
iter:  12 13:30:44  -188.665400   -2.73  -2.30
iter:  13 13:31:05  -188.628846   -3.67  -2.69
iter:  14 13:31:22  -188.642598c  -4.27  -2.74
iter:  15 13:31:43  -188.667968c  -4.01  -2.76
iter:  16 13:32:00  -188.861951   -3.42  -2.78
iter:  17 13:32:21  -188.611365   -3.98  -2.63
iter:  18 13:32:42  -188.603626   -4.82  -3.05
iter:  19 13:32:58  -188.609686c  -4.91  -3.08
iter:  20 13:33:19  -188.606963c  -4.81  -3.10
iter:  21 13:33:41  -188.607906c  -4.71  -3.22
iter:  22 13:33:58  -188.615328c  -4.85  -3.24
iter:  23 13:34:13  -188.603173c  -4.94  -3.18
iter:  24 13:34:28  -188.600638c  -4.91  -3.40
iter:  25 13:34:49  -188.599606c  -5.47  -3.55
iter:  26 13:35:09  -188.599040c  -5.84  -3.66
iter:  27 13:35:26  -188.599011c  -6.03  -3.83
iter:  28 13:35:42  -188.602942c  -5.41  -3.91
iter:  29 13:36:04  -188.598750c  -5.84  -3.56
iter:  30 13:36:21  -188.598755c  -6.86  -4.17c
iter:  31 13:36:38  -188.598997c  -6.51  -4.29c
iter:  32 13:37:01  -188.598832c  -7.17  -4.33c
iter:  33 13:37:18  -188.598919c  -7.40c -4.38c

Converged after 33 iterations.

Dipole moment: (-0.285607, -0.150806, 0.048381) |e|*Ang

Energy contributions relative to reference atoms: (reference = -1116960.938401)

Kinetic:       +159.361845
Potential:     -117.400260
External:        +0.000000
XC:            -232.652710
Entropy (-ST):   -2.736775
Local:           +3.460594
SIC:             +0.000000
--------------------------
Free energy:   -189.967307
Extrapolated:  -188.598919

Showing all kpts
 Kpt  Band  Eigenvalues  Occupancy
  0   215     -1.72208    1.31247
  0   216     -1.72062    1.30587
  0   217     -1.67799    1.10246
  0   218     -1.67557    1.09049

  1   215     -1.69501    1.18574
  1   216     -1.68346    1.12942
  1   217     -1.67811    1.10304
  1   218     -1.67730    1.09903


Fermi level: -1.65743

No gap
No difference between direct/indirect transitions
Timing:                              incl.     excl.
-----------------------------------------------------------
Hamiltonian:                         1.405     0.004   0.0% |
 Atomic:                             0.657     0.002   0.0% |
  XC Correction:                     0.655     0.655   0.1% |
 Calculate atomic Hamiltonians:      0.402     0.402   0.1% |
 Communicate:                        0.000     0.000   0.0% |
 Initialize Hamiltonian:             0.001     0.001   0.0% |
 Poisson:                            0.004     0.004   0.0% |
 XC 3D grid:                         0.338     0.338   0.1% |
LCAO initialization:                42.381     0.040   0.0% |
 LCAO eigensolver:                   3.642     0.001   0.0% |
  Calculate projections:             0.006     0.006   0.0% |
  DenseAtomicCorrection:             0.189     0.189   0.0% |
  Distribute overlap matrix:         0.001     0.001   0.0% |
  Orbital Layouts:                   0.070     0.070   0.0% |
  Potential matrix:                  3.354     3.354   0.5% |
  Sum over cells:                    0.022     0.022   0.0% |
 LCAO to grid:                      37.566    37.566   5.7% |-|
 Set positions (LCAO WFS):           1.133     0.432   0.1% |
  Basic WFS set positions:           0.001     0.001   0.0% |
  Basis functions set positions:     0.000     0.000   0.0% |
  P tci:                             0.495     0.495   0.1% |
  ST tci:                            0.193     0.193   0.0% |
  mktci:                             0.013     0.013   0.0% |
PWDescriptor:                        0.018     0.018   0.0% |
SCF-cycle:                         617.500     0.060   0.0% |
 Davidson:                         524.533   135.146  20.4% |-------|
  Apply H:                          60.831    59.078   8.9% |---|
   HMM T:                            1.753     1.753   0.3% |
  Subspace diag:                    92.868     0.016   0.0% |
   calc_h_matrix:                   68.906    12.640   1.9% ||
    Apply H:                        56.265    54.561   8.2% |--|
     HMM T:                          1.704     1.704   0.3% |
   diagonalize:                      7.966     7.966   1.2% |
   rotate_psi:                      15.981    15.981   2.4% ||
  calc. matrices:                  187.945    65.283   9.8% |---|
   Apply H:                        122.662   119.153  18.0% |------|
    HMM T:                           3.509     3.509   0.5% |
  diagonalize:                      19.228    19.228   2.9% ||
  rotate_psi:                       28.514    28.514   4.3% |-|
 Density:                           44.788     0.001   0.0% |
  Atomic density matrices:           0.168     0.168   0.0% |
  Mix:                              18.686    18.686   2.8% ||
  Multipole moments:                 0.014     0.014   0.0% |
  Pseudo density:                   25.919    25.700   3.9% |-|
   Symmetrize density:               0.219     0.219   0.0% |
 Hamiltonian:                       47.348     0.091   0.0% |
  Atomic:                           20.358     0.066   0.0% |
   XC Correction:                   20.291    20.291   3.1% ||
  Calculate atomic Hamiltonians:    15.497    15.497   2.3% ||
  Communicate:                       0.000     0.000   0.0% |
  Poisson:                           0.122     0.122   0.0% |
  XC 3D grid:                       11.279    11.279   1.7% ||
 Orthonormalize:                     0.772     0.000   0.0% |
  calc_s_matrix:                     0.083     0.083   0.0% |
  inverse-cholesky:                  0.009     0.009   0.0% |
  projections:                       0.386     0.386   0.1% |
  rotate_psi_s:                      0.292     0.292   0.0% |
Set symmetry:                        0.001     0.001   0.0% |
Other:                               1.639     1.639   0.2% |
-----------------------------------------------------------
Total:                                       662.945 100.0%

Memory usage: 1.11 GiB
Date: Sat Mar 29 13:37:18 2025
