
  ___ ___ ___ _ _ _  
 |   |   |_  | | | | 
 | | | | | . | | | | 
 |__ |  _|___|_____|  24.6.0
 |___|_|             

User:   kerem@DESKTOP-CMKTO4T
Date:   Sat Mar 29 11:28:05 2025
Arch:   x86_64
Pid:    640
CWD:    /home/kerem
Python: 3.12.9
gpaw:   /home/kerem/miniconda3/envs/gpaw-env/lib/python3.12/site-packages/gpaw
_gpaw:  /home/kerem/miniconda3/envs/gpaw-env/lib/python3.12/site-packages/
        _gpaw.cpython-312-x86_64-linux-gnu.so
ase:    /home/kerem/miniconda3/envs/gpaw-env/lib/python3.12/site-packages/ase (version 3.24.0)
numpy:  /home/kerem/miniconda3/envs/gpaw-env/lib/python3.12/site-packages/numpy (version 1.26.4)
scipy:  /home/kerem/miniconda3/envs/gpaw-env/lib/python3.12/site-packages/scipy (version 1.15.2)
libxc:  6.2.2
units:  Angstrom and eV
cores: 1
OpenMP: True
OMP_NUM_THREADS: 1

Input parameters:
  kpts: [2 2 1]
  mode: {ecut: 400.0,
         name: pw}
  xc: PBE

System changes: positions, numbers, cell, pbc, initial_charges, initial_magmoms 

Initialize ...

species:
  Ni:
    name: Nickel
    id: 0d9f38a9d6e76a2886f07bb4381f212b
    Z: 28.0
    valence: 16
    core: 12
    charge: 0.0
    file: /home/kerem/miniconda3/envs/gpaw-env/share/gpaw/Ni.PBE.gz
    compensation charges: {type: gauss,
                           rc: 0.36,
                           lmax: 2}
    cutoffs: {filter: 2.14,
              core: 1.98}
    projectors:
      #              energy  rcut
      - 4s(2.00)    -5.642   1.164
      - 3p(6.00)   -71.394   1.207
      - 4p(0.00)    -1.226   1.207
      - 3d(8.00)    -8.875   1.138
      -  s          21.570   1.164
      -  d          18.337   1.138
  
    # Using partial waves for Ni as LCAO basis

  H:
    name: Hydrogen
    id: d65de229564ff8ea4db303e23b6d1ecf
    Z: 1.0
    valence: 1
    core: 0
    charge: 0.0
    file: /home/kerem/miniconda3/envs/gpaw-env/share/gpaw/H.PBE.gz
    compensation charges: {type: gauss,
                           rc: 0.15,
                           lmax: 2}
    cutoffs: {filter: 0.85,
              core: 0.53}
    projectors:
      #              energy  rcut
      - 1s(1.00)    -6.494   0.476
      -  s          20.717   0.476
      -  p           0.000   0.476
  
    # Using partial waves for H as LCAO basis

Reference energy: -1116960.938401  # eV

Spin-paired calculation

Convergence criteria:
 Maximum [total energy] change in last 3 cyles: 0.0005 eV / valence electron
 Maximum integral of absolute [dens]ity change: 0.0001 electrons / valence electron
 Maximum integral of absolute [eigenst]ate change: 4e-08 eV^2 / valence electron
 Maximum number of scf [iter]ations: 333
 (Square brackets indicate name in SCF output, whereas a 'c' in
 the SCF output indicates the quantity has converged.)

Symmetries present (total): 2

  ( 1  0  0)  (-1  0  0)
  ( 0  1  0)  (-1  1  0)
  ( 0  0  1)  ( 0  0  1)
Note: your k-points are not as symmetric as your crystal!

4 k-points: 2 x 2 x 1 Monkhorst-Pack grid
2 k-points in the irreducible part of the Brillouin zone
       k-points in crystal coordinates                weights
   0:     0.25000000   -0.25000000    0.00000000          2/4
   1:     0.25000000    0.25000000    0.00000000          2/4

Wave functions: Plane wave expansion
  Cutoff energy: 400.000 eV
  Number of coefficients (min, max): 21105, 21124
  Pulay-stress correction: 0.000000 eV/Ang^3 (de/decut=0.000000)
  Using FFTW library
  ScaLapack parameters: grid=1x1, blocksize=None
  Wavefunction extrapolation:
    Improved wavefunction reuse through dual PAW basis 

Occupation numbers: Fermi-Dirac:
  width: 0.1000  # eV
 

Eigensolver
   Davidson(niter=2) 

Densities:
  Coarse grid: 35*35*112 grid
  Fine grid: 70*70*224 grid
  Total Charge: 0.000000 

Density mixing:
  Method: separate
  Backend: pulay
  Linear mixing parameter: 0.05
  old densities: 5
  Damping of long wavelength oscillations: 50 

Hamiltonian:
  XC and Coulomb potentials evaluated on a 70*70*224 grid
  Using the PBE Exchange-Correlation functional
  External potential:
    NoExternalPotential
 

XC parameters: PBE with 2 nearest neighbor stencil

Memory estimate:
  Process memory now: 1047.63 MiB
  Calculator: 368.46 MiB
    Density: 65.71 MiB
      Arrays: 27.22 MiB
      Localized functions: 28.02 MiB
      Mixer: 10.47 MiB
    Hamiltonian: 18.48 MiB
      Arrays: 17.79 MiB
      XC: 0.00 MiB
      Poisson: 0.00 MiB
      vbar: 0.68 MiB
    Wavefunctions: 284.27 MiB
      Arrays psit_nG: 170.83 MiB
      Eigensolver: 97.75 MiB
      Projections: 4.01 MiB
      Projectors: 5.80 MiB
      PW-descriptor: 5.88 MiB

Total number of cores used: 1

Number of atoms: 29
Number of atomic orbitals: 326
Number of bands in calculation: 265
Number of valence electrons: 434
Bands to converge: occupied

... initialized

Initializing position-dependent things.

Density initialized from atomic densities
Creating initial wave functions:
  265 bands from LCAO basis set

                                         
                                         
                                         
                                         
                                         
                  H                      
                  H                      
                Ni    Ni    Ni           
           Ni    NNi   NNi   Ni          
       Ni    Ni    Ni                    
            Ni    Ni    Ni               
        Ni    Ni   NNi   Ni    Ni        
                                         
               Ni    Ni    Ni            
           Ni    Ni    Ni                
                                         
                                         
                                         
                                         

Positions:
   0 Ni     1.244508    0.718517   10.000000    ( 0.0000,  0.0000,  0.0000)
   1 Ni     3.733524    0.718517   10.000000    ( 0.0000,  0.0000,  0.0000)
   2 Ni     6.222540    0.718517   10.000000    ( 0.0000,  0.0000,  0.0000)
   3 Ni     2.489016    2.874068   10.000000    ( 0.0000,  0.0000,  0.0000)
   4 Ni     4.978032    2.874068   10.000000    ( 0.0000,  0.0000,  0.0000)
   5 Ni     7.467048    2.874068   10.000000    ( 0.0000,  0.0000,  0.0000)
   6 Ni     3.733524    5.029619   10.000000    ( 0.0000,  0.0000,  0.0000)
   7 Ni     6.222540    5.029619   10.000000    ( 0.0000,  0.0000,  0.0000)
   8 Ni     8.711556    5.029619   10.000000    ( 0.0000,  0.0000,  0.0000)
   9 Ni     0.000000    1.437034   12.032273    ( 0.0000,  0.0000,  0.0000)
  10 Ni     2.489016    1.437034   12.032273    ( 0.0000,  0.0000,  0.0000)
  11 Ni     4.978032    1.437034   12.032273    ( 0.0000,  0.0000,  0.0000)
  12 Ni     1.244508    3.592585   12.032273    ( 0.0000,  0.0000,  0.0000)
  13 Ni     3.733524    3.592585   12.032273    ( 0.0000,  0.0000,  0.0000)
  14 Ni     6.222540    3.592585   12.032273    ( 0.0000,  0.0000,  0.0000)
  15 Ni     2.489016    5.748136   12.032273    ( 0.0000,  0.0000,  0.0000)
  16 Ni     4.978032    5.748136   12.032273    ( 0.0000,  0.0000,  0.0000)
  17 Ni     7.467048    5.748136   12.032273    ( 0.0000,  0.0000,  0.0000)
  18 Ni     0.000000    0.000000   14.064546    ( 0.0000,  0.0000,  0.0000)
  19 Ni     2.489016    0.000000   14.064546    ( 0.0000,  0.0000,  0.0000)
  20 Ni     4.978032    0.000000   14.064546    ( 0.0000,  0.0000,  0.0000)
  21 Ni     1.244508    2.155551   14.064546    ( 0.0000,  0.0000,  0.0000)
  22 Ni     3.733524    2.155551   14.064546    ( 0.0000,  0.0000,  0.0000)
  23 Ni     6.222540    2.155551   14.064546    ( 0.0000,  0.0000,  0.0000)
  24 Ni     2.489016    4.311102   14.064546    ( 0.0000,  0.0000,  0.0000)
  25 Ni     4.978032    4.311102   14.064546    ( 0.0000,  0.0000,  0.0000)
  26 Ni     7.467048    4.311102   14.064546    ( 0.0000,  0.0000,  0.0000)
  27 H      3.733524    3.233326   15.064546    ( 0.0000,  0.0000,  0.0000)
  28 H      3.733524    3.233326   15.804546    ( 0.0000,  0.0000,  0.0000)

Unit cell:
           periodic     x           y           z      points  spacing
  1. axis:    yes    7.467048    0.000000    0.000000    35     0.1848
  2. axis:    yes    3.733524    6.466653    0.000000    35     0.1848
  3. axis:    no     0.000000    0.000000   24.064546   112     0.2149

  Lengths:   7.467048   7.467048  24.064546
  Angles:   90.000000  90.000000  60.000000

Effective grid spacing dv^(1/3) = 0.2038

     iter     time        total  log10-change:
                         energy   eigst   dens
iter:   1 11:28:55  -193.453606
iter:   2 11:29:08  -190.991942   -0.36  -1.54
iter:   3 11:29:19  -197.726978   -0.82  -1.64
iter:   4 11:29:30  -204.839069   -1.09  -1.73
iter:   5 11:29:44  -190.274665   -1.45  -1.69
iter:   6 11:29:55  -189.657885   -2.03  -1.85
iter:   7 11:30:10  -191.649147   -1.59  -1.93
iter:   8 11:30:21  -191.286990   -1.91  -2.01
iter:   9 11:30:32  -188.898451   -2.44  -2.08
iter:  10 11:30:47  -188.507489   -2.69  -2.19
iter:  11 11:30:58  -188.056117   -2.69  -2.20
iter:  12 11:31:09  -187.990457   -3.25  -2.28
iter:  13 11:31:24  -188.227306   -2.75  -2.37
iter:  14 11:31:36  -188.520750   -2.94  -2.48
iter:  15 11:31:47  -188.071350   -3.06  -2.46
iter:  16 11:32:01  -187.957422   -4.04  -2.54
iter:  17 11:32:12  -187.960461c  -4.08  -2.67
iter:  18 11:32:23  -187.906590c  -4.16  -2.68
iter:  19 11:32:37  -187.874185c  -3.89  -2.86
iter:  20 11:32:56  -187.856220c  -4.47  -3.00
iter:  21 11:33:44  -187.855374c  -5.04  -3.12
iter:  22 11:34:26  -187.862784c  -4.73  -3.16
iter:  23 11:34:51  -187.853729c  -5.08  -3.11
iter:  24 11:35:17  -187.852181c  -4.72  -3.26
iter:  25 11:35:40  -187.855782c  -5.28  -3.29
iter:  26 11:36:02  -187.852473c  -5.17  -3.26
iter:  27 11:36:26  -187.854075c  -4.96  -3.39
iter:  28 11:36:46  -187.854837c  -5.29  -3.43
iter:  29 11:37:09  -187.853795c  -5.30  -3.52
iter:  30 11:37:33  -187.852958c  -6.24  -3.61
iter:  31 11:37:59  -187.853187c  -5.97  -3.73
iter:  32 11:38:21  -187.853205c  -5.87  -3.78
iter:  33 11:38:42  -187.852748c  -6.07  -3.78
iter:  34 11:39:01  -187.852666c  -6.37  -3.90
iter:  35 11:39:24  -187.852479c  -6.82  -3.93
iter:  36 11:39:48  -187.852478c  -6.32  -3.96
iter:  37 11:40:11  -187.852185c  -6.60  -3.89
iter:  38 11:40:32  -187.851824c  -6.63  -4.03c
iter:  39 11:40:51  -187.851728c  -6.84  -4.09c
iter:  40 11:41:14  -187.851667c  -6.89  -4.11c
iter:  41 11:41:36  -187.851991c  -6.05  -4.19c
iter:  42 11:41:58  -187.851416c  -6.54  -3.90
iter:  43 11:42:22  -187.851341c  -7.13  -4.32c
iter:  44 11:42:48  -187.851367c  -7.43c -4.37c

Converged after 44 iterations.

Dipole moment: (-0.524223, -0.154785, 0.153544) |e|*Ang

Energy contributions relative to reference atoms: (reference = -1116960.938401)

Kinetic:       +169.274590
Potential:     -123.935723
External:        +0.000000
XC:            -235.414115
Entropy (-ST):   -2.676920
Local:           +3.562342
SIC:             +0.000000
--------------------------
Free energy:   -189.189826
Extrapolated:  -187.851367

Showing all kpts
 Kpt  Band  Eigenvalues  Occupancy
  0   215     -1.61380    1.32469
  0   216     -1.57378    1.13594
  0   217     -1.56976    1.11615
  0   218     -1.54693    1.00252

  1   215     -1.59726    1.24887
  1   216     -1.58134    1.17284
  1   217     -1.57345    1.13434
  1   218     -1.57111    1.12281


Fermi level: -1.54642

No gap
No difference between direct/indirect transitions
Timing:                              incl.     excl.
-----------------------------------------------------------
Hamiltonian:                         1.247     0.003   0.0% |
 Atomic:                             0.576     0.002   0.0% |
  XC Correction:                     0.574     0.574   0.1% |
 Calculate atomic Hamiltonians:      0.313     0.313   0.0% |
 Communicate:                        0.000     0.000   0.0% |
 Initialize Hamiltonian:             0.001     0.001   0.0% |
 Poisson:                            0.003     0.003   0.0% |
 XC 3D grid:                         0.351     0.351   0.0% |
LCAO initialization:                37.704     0.034   0.0% |
 LCAO eigensolver:                   2.906     0.000   0.0% |
  Calculate projections:             0.005     0.005   0.0% |
  DenseAtomicCorrection:             0.007     0.007   0.0% |
  Distribute overlap matrix:         0.001     0.001   0.0% |
  Orbital Layouts:                   0.061     0.061   0.0% |
  Potential matrix:                  2.821     2.821   0.3% |
  Sum over cells:                    0.011     0.011   0.0% |
 LCAO to grid:                      34.026    34.026   3.9% |-|
 Set positions (LCAO WFS):           0.738     0.128   0.0% |
  Basic WFS set positions:           0.001     0.001   0.0% |
  Basis functions set positions:     0.000     0.000   0.0% |
  P tci:                             0.432     0.432   0.0% |
  ST tci:                            0.166     0.166   0.0% |
  mktci:                             0.012     0.012   0.0% |
PWDescriptor:                        0.011     0.011   0.0% |
SCF-cycle:                         843.323     0.053   0.0% |
 Davidson:                         733.550   113.340  12.8% |----|
  Apply H:                          70.828    68.901   7.8% |--|
   HMM T:                            1.928     1.928   0.2% |
  Subspace diag:                   110.880     0.011   0.0% |
   calc_h_matrix:                   78.736    14.563   1.6% ||
    Apply H:                        64.173    62.257   7.0% |--|
     HMM T:                          1.916     1.916   0.2% |
   diagonalize:                     19.190    19.190   2.2% ||
   rotate_psi:                      12.942    12.942   1.5% ||
  calc. matrices:                  210.640    77.496   8.8% |---|
   Apply H:                        133.144   129.301  14.6% |-----|
    HMM T:                           3.843     3.843   0.4% |
  diagonalize:                     203.565   203.565  23.0% |--------|
  rotate_psi:                       24.297    24.297   2.8% ||
 Density:                           48.375     0.001   0.0% |
  Atomic density matrices:           0.197     0.197   0.0% |
  Mix:                              17.151    17.151   1.9% ||
  Multipole moments:                 0.014     0.014   0.0% |
  Pseudo density:                   31.012    30.751   3.5% ||
   Symmetrize density:               0.261     0.261   0.0% |
 Hamiltonian:                       60.794     0.111   0.0% |
  Atomic:                           28.677     0.077   0.0% |
   XC Correction:                   28.601    28.601   3.2% ||
  Calculate atomic Hamiltonians:    12.971    12.971   1.5% ||
  Communicate:                       0.000     0.000   0.0% |
  Poisson:                           0.152     0.152   0.0% |
  XC 3D grid:                       18.882    18.882   2.1% ||
 Orthonormalize:                     0.552     0.000   0.0% |
  calc_s_matrix:                     0.060     0.060   0.0% |
  inverse-cholesky:                  0.007     0.007   0.0% |
  projections:                       0.268     0.268   0.0% |
  rotate_psi_s:                      0.216     0.216   0.0% |
Set symmetry:                        0.001     0.001   0.0% |
Other:                               1.120     1.120   0.1% |
-----------------------------------------------------------
Total:                                       883.406 100.0%

Memory usage: 1.05 GiB
Date: Sat Mar 29 11:42:48 2025
