
  ___ ___ ___ _ _ _  
 |   |   |_  | | | | 
 | | | | | . | | | | 
 |__ |  _|___|_____|  24.6.0
 |___|_|             

User:   kerem@DESKTOP-CMKTO4T
Date:   Sat Mar 29 17:02:34 2025
Arch:   x86_64
Pid:    12317
CWD:    /home/kerem
Python: 3.12.9
gpaw:   /home/kerem/miniconda3/envs/gpaw-env/lib/python3.12/site-packages/gpaw
_gpaw:  /home/kerem/miniconda3/envs/gpaw-env/lib/python3.12/site-packages/
        _gpaw.cpython-312-x86_64-linux-gnu.so
ase:    /home/kerem/miniconda3/envs/gpaw-env/lib/python3.12/site-packages/ase (version 3.24.0)
numpy:  /home/kerem/miniconda3/envs/gpaw-env/lib/python3.12/site-packages/numpy (version 1.26.4)
scipy:  /home/kerem/miniconda3/envs/gpaw-env/lib/python3.12/site-packages/scipy (version 1.15.2)
libxc:  6.2.2
units:  Angstrom and eV
cores: 1
OpenMP: True
OMP_NUM_THREADS: 1

Input parameters:
  mode: {ecut: 400.0,
         name: pw}
  xc: PBE

System changes: positions, numbers, cell, pbc, initial_charges, initial_magmoms 

Initialize ...

species:
  H:
    name: Hydrogen
    id: d65de229564ff8ea4db303e23b6d1ecf
    Z: 1.0
    valence: 1
    core: 0
    charge: 0.0
    file: /home/kerem/miniconda3/envs/gpaw-env/share/gpaw/H.PBE.gz
    compensation charges: {type: gauss,
                           rc: 0.15,
                           lmax: 2}
    cutoffs: {filter: 0.85,
              core: 0.53}
    projectors:
      #              energy  rcut
      - 1s(1.00)    -6.494   0.476
      -  s          20.717   0.476
      -  p           0.000   0.476
  
    # Using partial waves for H as LCAO basis

Reference energy: -24.980324  # eV

Spin-paired calculation

Convergence criteria:
 Maximum [total energy] change in last 3 cyles: 0.0005 eV / valence electron
 Maximum integral of absolute [dens]ity change: 0.0001 electrons / valence electron
 Maximum integral of absolute [eigenst]ate change: 4e-08 eV^2 / valence electron
 Maximum number of scf [iter]ations: 333
 (Square brackets indicate name in SCF output, whereas a 'c' in
 the SCF output indicates the quantity has converged.)

Symmetries present (total): 8

  ( 1  0  0)  ( 1  0  0)  ( 0  1  0)  ( 0  1  0)  ( 0 -1  0)  ( 0 -1  0)
  ( 0  1  0)  ( 0 -1  0)  ( 1  0  0)  (-1  0  0)  ( 1  0  0)  (-1  0  0)
  ( 0  0  1)  ( 0  0  1)  ( 0  0  1)  ( 0  0  1)  ( 0  0  1)  ( 0  0  1)

  (-1  0  0)  (-1  0  0)
  ( 0  1  0)  ( 0 -1  0)
  ( 0  0  1)  ( 0  0  1)

1 k-point (Gamma)
1 k-point in the irreducible part of the Brillouin zone
       k-points in crystal coordinates                weights
   0:     0.00000000    0.00000000    0.00000000          1/1

Wave functions: Plane wave expansion
  Cutoff energy: 400.000 eV
  Number of coefficients: 3887 (reduced to 1944)
  Pulay-stress correction: 0.000000 eV/Ang^3 (de/decut=0.000000)
  Using FFTW library
  ScaLapack parameters: grid=1x1, blocksize=None
  Wavefunction extrapolation:
    Improved wavefunction reuse through dual PAW basis 

Occupation numbers: # Zero width 

Eigensolver
   Davidson(niter=2) 

Densities:
  Coarse grid: 28*28*28 grid
  Fine grid: 56*56*56 grid
  Total Charge: 0.000000 

Density mixing:
  Method: separate
  Backend: pulay
  Linear mixing parameter: 0.05
  old densities: 5
  Damping of long wavelength oscillations: 50 

Hamiltonian:
  XC and Coulomb potentials evaluated on a 56*56*56 grid
  Using the PBE Exchange-Correlation functional
  External potential:
    NoExternalPotential
 

XC parameters: PBE with 2 nearest neighbor stencil

Memory estimate:
  Process memory now: 135.95 MiB
  Calculator: 13.94 MiB
    Density: 10.17 MiB
      Arrays: 4.35 MiB
      Localized functions: 4.14 MiB
      Mixer: 1.67 MiB
    Hamiltonian: 2.93 MiB
      Arrays: 2.85 MiB
      XC: 0.00 MiB
      Poisson: 0.00 MiB
      vbar: 0.08 MiB
    Wavefunctions: 0.84 MiB
      Arrays psit_nG: 0.06 MiB
      Eigensolver: 0.21 MiB
      Projections: 0.00 MiB
      Projectors: 0.10 MiB
      PW-descriptor: 0.47 MiB

Total number of cores used: 1

Number of atoms: 2
Number of atomic orbitals: 2
Number of bands in calculation: 2
Number of valence electrons: 2
Bands to converge: occupied

... initialized

Initializing position-dependent things.

Density initialized from atomic densities
Creating initial wave functions:
  2 bands from LCAO basis set

     .--------------.  
    /|              |  
   / |              |  
  /  |              |  
 *   |              |  
 |   |              |  
 |   |              |  
 |   .--------------.  
 |  /              /   
 | /              /    
 H/              /     
 H--------------*      

Positions:
   0 H      0.000000    0.000000    0.000000    ( 0.0000,  0.0000,  0.0000)
   1 H      0.000000    0.000000    0.740000    ( 0.0000,  0.0000,  0.0000)

Unit cell:
           periodic     x           y           z      points  spacing
  1. axis:    no     6.000000    0.000000    0.000000    28     0.2143
  2. axis:    no     0.000000    6.000000    0.000000    28     0.2143
  3. axis:    no     0.000000    0.000000    6.000000    28     0.2143

  Lengths:   6.000000   6.000000   6.000000
  Angles:   90.000000  90.000000  90.000000

Effective grid spacing dv^(1/3) = 0.2143

     iter     time        total  log10-change:
                         energy   eigst   dens
iter:   1 17:02:34    -7.322247
iter:   2 17:02:34    -7.293719   -0.72  -0.44
iter:   3 17:02:34    -8.346422   -0.81  -0.43
iter:   4 17:02:35    -6.726564   -0.28  -0.14
iter:   5 17:02:35    -6.718116   -2.74  -1.37
iter:   6 17:02:35    -6.718232   -4.27  -1.91
iter:   7 17:02:35    -6.718206c  -3.49  -1.88
iter:   8 17:02:35    -6.718204c  -4.00  -2.33
iter:   9 17:02:35    -6.718146c  -4.85  -2.43
iter:  10 17:02:35    -6.718150c  -6.51  -2.79
iter:  11 17:02:35    -6.718153c  -6.25  -2.89
iter:  12 17:02:35    -6.718153c  -6.78  -3.53
iter:  13 17:02:36    -6.718153c  -8.03c -3.82
iter:  14 17:02:36    -6.718153c  -8.10c -3.95
iter:  15 17:02:36    -6.718153c  -9.88c -5.33c

Converged after 15 iterations.

Dipole moment: (-0.000000, 0.000000, 0.091225) |e|*Ang

Energy contributions relative to reference atoms: (reference = -24.980324)

Kinetic:         +6.389834
Potential:       -8.054545
External:        +0.000000
XC:              -5.050336
Entropy (-ST):   +0.000000
Local:           -0.003105
SIC:             +0.000000
--------------------------
Free energy:     -6.718153
Extrapolated:    -6.718153

 Band  Eigenvalues  Occupancy
    0    -10.26217    2.00000
    1      1.12287    0.00000

Fermi level: -4.56965

Gap: 11.385 eV
Transition (v -> c):
  (s=0, k=0, n=0, [0.00, 0.00, 0.00]) -> (s=0, k=0, n=1, [0.00, 0.00, 0.00])
No difference between direct/indirect transitions
Timing:                              incl.     excl.
-----------------------------------------------------------
Hamiltonian:                         0.142     0.001   0.0% |
 Atomic:                             0.016     0.000   0.0% |
  XC Correction:                     0.016     0.016   0.7% |
 Calculate atomic Hamiltonians:      0.004     0.004   0.2% |
 Communicate:                        0.000     0.000   0.0% |
 Initialize Hamiltonian:             0.000     0.000   0.0% |
 Poisson:                            0.001     0.001   0.0% |
 XC 3D grid:                         0.120     0.120   5.8% |-|
LCAO initialization:                 0.014     0.001   0.1% |
 LCAO eigensolver:                   0.008     0.000   0.0% |
  Calculate projections:             0.000     0.000   0.0% |
  DenseAtomicCorrection:             0.000     0.000   0.0% |
  Distribute overlap matrix:         0.000     0.000   0.0% |
  Orbital Layouts:                   0.007     0.007   0.3% |
  Potential matrix:                  0.001     0.001   0.0% |
 LCAO to grid:                       0.001     0.001   0.0% |
 Set positions (LCAO WFS):           0.004     0.000   0.0% |
  Basic WFS set positions:           0.000     0.000   0.0% |
  Basis functions set positions:     0.000     0.000   0.0% |
  P tci:                             0.001     0.001   0.0% |
  ST tci:                            0.001     0.001   0.0% |
  mktci:                             0.002     0.002   0.1% |
PWDescriptor:                        0.085     0.085   4.1% |-|
SCF-cycle:                           1.494     0.005   0.2% |
 Davidson:                           0.078     0.018   0.8% |
  Apply H:                           0.010     0.010   0.5% |
   HMM T:                            0.000     0.000   0.0% |
  Subspace diag:                     0.017     0.001   0.0% |
   calc_h_matrix:                    0.013     0.002   0.1% |
    Apply H:                         0.011     0.011   0.5% |
     HMM T:                          0.000     0.000   0.0% |
   diagonalize:                      0.002     0.002   0.1% |
   rotate_psi:                       0.001     0.001   0.0% |
  calc. matrices:                    0.030     0.010   0.5% |
   Apply H:                          0.020     0.020   1.0% |
    HMM T:                           0.001     0.001   0.0% |
  diagonalize:                       0.002     0.002   0.1% |
  rotate_psi:                        0.001     0.001   0.0% |
 Density:                            0.198     0.000   0.0% |
  Atomic density matrices:           0.005     0.005   0.2% |
  Mix:                               0.130     0.130   6.3% |--|
  Multipole moments:                 0.001     0.001   0.1% |
  Pseudo density:                    0.061     0.006   0.3% |
   Symmetrize density:               0.055     0.055   2.6% ||
 Hamiltonian:                        1.212     0.009   0.4% |
  Atomic:                            0.300     0.006   0.3% |
   XC Correction:                    0.295     0.295  14.2% |-----|
  Calculate atomic Hamiltonians:     0.056     0.056   2.7% ||
  Communicate:                       0.000     0.000   0.0% |
  Poisson:                           0.009     0.009   0.4% |
  XC 3D grid:                        0.838     0.838  40.3% |---------------|
 Orthonormalize:                     0.001     0.000   0.0% |
  calc_s_matrix:                     0.000     0.000   0.0% |
  inverse-cholesky:                  0.001     0.001   0.0% |
  projections:                       0.000     0.000   0.0% |
  rotate_psi_s:                      0.000     0.000   0.0% |
Set symmetry:                        0.005     0.005   0.2% |
Other:                               0.337     0.337  16.2% |-----|
-----------------------------------------------------------
Total:                                         2.078 100.0%

Memory usage: 160.96 MiB
Date: Sat Mar 29 17:02:36 2025
