
  ___ ___ ___ _ _ _  
 |   |   |_  | | | | 
 | | | | | . | | | | 
 |__ |  _|___|_____|  24.6.0
 |___|_|             

User:   kerem@DESKTOP-CMKTO4T
Date:   Sun Mar 30 15:27:56 2025
Arch:   x86_64
Pid:    5494
CWD:    /home/kerem
Python: 3.12.9
gpaw:   /home/kerem/miniconda3/envs/gpaw-env/lib/python3.12/site-packages/gpaw
_gpaw:  /home/kerem/miniconda3/envs/gpaw-env/lib/python3.12/site-packages/
        _gpaw.cpython-312-x86_64-linux-gnu.so
ase:    /home/kerem/miniconda3/envs/gpaw-env/lib/python3.12/site-packages/ase (version 3.24.0)
numpy:  /home/kerem/miniconda3/envs/gpaw-env/lib/python3.12/site-packages/numpy (version 1.26.4)
scipy:  /home/kerem/miniconda3/envs/gpaw-env/lib/python3.12/site-packages/scipy (version 1.15.2)
libxc:  6.2.2
units:  Angstrom and eV
cores: 1
OpenMP: True
OMP_NUM_THREADS: 1

Input parameters:
  kpts: [1 1 1]
  mode: {ecut: 300.0,
         name: pw}
  xc: PBE

System changes: positions, numbers, cell, pbc, initial_charges, initial_magmoms 

Initialize ...

species:
  Ni:
    name: Nickel
    id: 0d9f38a9d6e76a2886f07bb4381f212b
    Z: 28.0
    valence: 16
    core: 12
    charge: 0.0
    file: /home/kerem/miniconda3/envs/gpaw-env/share/gpaw/Ni.PBE.gz
    compensation charges: {type: gauss,
                           rc: 0.36,
                           lmax: 2}
    cutoffs: {filter: 2.14,
              core: 1.98}
    projectors:
      #              energy  rcut
      - 4s(2.00)    -5.642   1.164
      - 3p(6.00)   -71.394   1.207
      - 4p(0.00)    -1.226   1.207
      - 3d(8.00)    -8.875   1.138
      -  s          21.570   1.164
      -  d          18.337   1.138
  
    # Using partial waves for Ni as LCAO basis

  H:
    name: Hydrogen
    id: d65de229564ff8ea4db303e23b6d1ecf
    Z: 1.0
    valence: 1
    core: 0
    charge: 0.0
    file: /home/kerem/miniconda3/envs/gpaw-env/share/gpaw/H.PBE.gz
    compensation charges: {type: gauss,
                           rc: 0.15,
                           lmax: 2}
    cutoffs: {filter: 0.85,
              core: 0.53}
    projectors:
      #              energy  rcut
      - 1s(1.00)    -6.494   0.476
      -  s          20.717   0.476
      -  p           0.000   0.476
  
    # Using partial waves for H as LCAO basis

Reference energy: -1116960.938401  # eV

Spin-paired calculation

Convergence criteria:
 Maximum [total energy] change in last 3 cyles: 0.0005 eV / valence electron
 Maximum integral of absolute [dens]ity change: 0.0001 electrons / valence electron
 Maximum integral of absolute [eigenst]ate change: 4e-08 eV^2 / valence electron
 Maximum number of scf [iter]ations: 333
 (Square brackets indicate name in SCF output, whereas a 'c' in
 the SCF output indicates the quantity has converged.)

Symmetries present (total): 1

  ( 1  0  0)
  ( 0  1  0)
  ( 0  0  1)

1 k-point (Gamma)
1 k-point in the irreducible part of the Brillouin zone
       k-points in crystal coordinates                weights
   0:     0.00000000    0.00000000    0.00000000          1/1

Wave functions: Plane wave expansion
  Cutoff energy: 300.000 eV
  Number of coefficients: 13711 (reduced to 6856)
  Pulay-stress correction: 0.000000 eV/Ang^3 (de/decut=0.000000)
  Using FFTW library
  ScaLapack parameters: grid=1x1, blocksize=None
  Wavefunction extrapolation:
    Improved wavefunction reuse through dual PAW basis 

Occupation numbers: Fermi-Dirac:
  width: 0.1000  # eV
 

Eigensolver
   Davidson(niter=2) 

Densities:
  Coarse grid: 30*30*98 grid
  Fine grid: 60*60*196 grid
  Total Charge: 0.000000 

Density mixing:
  Method: separate
  Backend: pulay
  Linear mixing parameter: 0.05
  old densities: 5
  Damping of long wavelength oscillations: 50 

Hamiltonian:
  XC and Coulomb potentials evaluated on a 60*60*196 grid
  Using the PBE Exchange-Correlation functional
  External potential:
    NoExternalPotential
 

XC parameters: PBE with 2 nearest neighbor stencil

Memory estimate:
  Process memory now: 220.11 MiB
  Calculator: 119.38 MiB
    Density: 42.41 MiB
      Arrays: 17.50 MiB
      Localized functions: 18.19 MiB
      Mixer: 6.73 MiB
    Hamiltonian: 11.88 MiB
      Arrays: 11.44 MiB
      XC: 0.00 MiB
      Poisson: 0.00 MiB
      vbar: 0.44 MiB
    Wavefunctions: 65.09 MiB
      Arrays psit_nG: 27.72 MiB
      Eigensolver: 33.61 MiB
      Projections: 1.00 MiB
      Projectors: 0.94 MiB
      PW-descriptor: 1.81 MiB

Total number of cores used: 1

Number of atoms: 29
Number of atomic orbitals: 326
Number of bands in calculation: 265
Number of valence electrons: 434
Bands to converge: occupied

... initialized

Initializing position-dependent things.

Density initialized from atomic densities
Creating initial wave functions:
  265 bands from LCAO basis set

                                         
                                         
                                         
                                         
                                         
                   H                     
                  H                      
                                         
                Ni    Ni    Ni           
           Ni    NNi   NNi   Ni          
       Ni    Ni    Ni                    
            Ni    Ni    Ni               
        Ni    Ni   NNi   Ni    Ni        
                                         
               Ni    Ni    Ni            
           Ni    Ni    Ni                
                                         
                                         
                                         
                                         

Positions:
   0 Ni     1.244508    0.718517   10.000000    ( 0.0000,  0.0000,  0.0000)
   1 Ni     3.733524    0.718517   10.000000    ( 0.0000,  0.0000,  0.0000)
   2 Ni     6.222540    0.718517   10.000000    ( 0.0000,  0.0000,  0.0000)
   3 Ni     2.489016    2.874068   10.000000    ( 0.0000,  0.0000,  0.0000)
   4 Ni     4.978032    2.874068   10.000000    ( 0.0000,  0.0000,  0.0000)
   5 Ni     7.467048    2.874068   10.000000    ( 0.0000,  0.0000,  0.0000)
   6 Ni     3.733524    5.029619   10.000000    ( 0.0000,  0.0000,  0.0000)
   7 Ni     6.222540    5.029619   10.000000    ( 0.0000,  0.0000,  0.0000)
   8 Ni     8.711556    5.029619   10.000000    ( 0.0000,  0.0000,  0.0000)
   9 Ni     0.000000    1.437034   12.032273    ( 0.0000,  0.0000,  0.0000)
  10 Ni     2.489016    1.437034   12.032273    ( 0.0000,  0.0000,  0.0000)
  11 Ni     4.978032    1.437034   12.032273    ( 0.0000,  0.0000,  0.0000)
  12 Ni     1.244508    3.592585   12.032273    ( 0.0000,  0.0000,  0.0000)
  13 Ni     3.733524    3.592585   12.032273    ( 0.0000,  0.0000,  0.0000)
  14 Ni     6.222540    3.592585   12.032273    ( 0.0000,  0.0000,  0.0000)
  15 Ni     2.489016    5.748136   12.032273    ( 0.0000,  0.0000,  0.0000)
  16 Ni     4.978032    5.748136   12.032273    ( 0.0000,  0.0000,  0.0000)
  17 Ni     7.467048    5.748136   12.032273    ( 0.0000,  0.0000,  0.0000)
  18 Ni     0.000000    0.000000   14.064546    ( 0.0000,  0.0000,  0.0000)
  19 Ni     2.489016    0.000000   14.064546    ( 0.0000,  0.0000,  0.0000)
  20 Ni     4.978032    0.000000   14.064546    ( 0.0000,  0.0000,  0.0000)
  21 Ni     1.244508    2.155551   14.064546    ( 0.0000,  0.0000,  0.0000)
  22 Ni     3.733524    2.155551   14.064546    ( 0.0000,  0.0000,  0.0000)
  23 Ni     6.222540    2.155551   14.064546    ( 0.0000,  0.0000,  0.0000)
  24 Ni     2.489016    4.311102   14.064546    ( 0.0000,  0.0000,  0.0000)
  25 Ni     4.978032    4.311102   14.064546    ( 0.0000,  0.0000,  0.0000)
  26 Ni     7.467048    4.311102   14.064546    ( 0.0000,  0.0000,  0.0000)
  27 H      3.608524    3.233326   16.189546    ( 0.0000,  0.0000,  0.0000)
  28 H      3.858524    3.233326   16.744546    ( 0.0000,  0.0000,  0.0000)

Unit cell:
           periodic     x           y           z      points  spacing
  1. axis:    yes    7.467048    0.000000    0.000000    30     0.2156
  2. axis:    yes    3.733524    6.466653    0.000000    30     0.2156
  3. axis:    no     0.000000    0.000000   24.064546    98     0.2456

  Lengths:   7.467048   7.467048  24.064546
  Angles:   90.000000  90.000000  60.000000

Effective grid spacing dv^(1/3) = 0.2362

     iter     time        total  log10-change:
                         energy   eigst   dens
iter:   1 15:28:13  -185.928981
iter:   2 15:28:15  -182.518522   -0.80  -1.52
iter:   3 15:28:18  -192.753802   -1.25  -1.57
iter:   4 15:28:21  -229.510043   -1.18  -1.63
iter:   5 15:28:24  -189.779645   -1.61  -1.53
iter:   6 15:28:27  -196.306865   -2.04  -1.68
iter:   7 15:28:30  -207.949338   -1.13  -1.68
iter:   8 15:28:33  -197.295419   -2.36  -1.66
iter:   9 15:28:36  -189.289709   -1.70  -1.75
iter:  10 15:28:38  -181.761784   -1.95  -1.85
iter:  11 15:28:45  -192.465340   -2.12  -1.85
iter:  12 15:28:48  -191.539281   -1.68  -1.78
iter:  13 15:28:51  -186.090093   -2.73  -1.80
iter:  14 15:28:53  -187.492549   -2.63  -1.90
iter:  15 15:28:56  -181.715812   -2.52  -1.89
iter:  16 15:28:59  -180.452481   -2.57  -1.98
iter:  17 15:29:02  -181.208350   -2.85  -2.01
iter:  18 15:29:05  -180.003088   -2.73  -1.98
iter:  19 15:29:08  -179.868141   -2.70  -2.08
iter:  20 15:29:10  -178.531064   -2.48  -2.15
iter:  21 15:29:13  -179.281531   -2.87  -2.27
iter:  22 15:29:20  -178.007105   -3.09  -2.12
iter:  23 15:29:22  -177.754594   -3.33  -2.37
iter:  24 15:29:25  -179.284325   -2.58  -2.49
iter:  25 15:29:28  -177.919800   -2.96  -2.20
iter:  26 15:29:31  -177.627231   -3.62  -2.45
iter:  27 15:29:34  -177.951929   -3.67  -2.62
iter:  28 15:29:37  -177.586093   -3.79  -2.41
iter:  29 15:29:39  -177.587053   -3.85  -2.74
iter:  30 15:29:42  -177.540844c  -4.25  -2.69
iter:  31 15:29:45  -177.556916c  -4.01  -2.84
iter:  32 15:29:48  -177.645716c  -4.21  -2.81
iter:  33 15:29:54  -177.658829c  -4.04  -2.62
iter:  34 15:29:57  -177.581173c  -4.02  -2.67
iter:  35 15:30:00  -177.558978c  -4.09  -2.75
iter:  36 15:30:03  -177.554690c  -4.51  -2.83
iter:  37 15:30:06  -177.566334c  -4.38  -2.82
iter:  38 15:30:09  -177.579071c  -4.06  -2.83
iter:  39 15:30:11  -177.553197c  -4.44  -2.80
iter:  40 15:30:14  -177.570142c  -4.19  -2.86
iter:  41 15:30:17  -177.529623c  -4.21  -2.85
iter:  42 15:30:20  -177.509367c  -4.68  -3.02
iter:  43 15:30:23  -177.503630c  -5.18  -3.14
iter:  44 15:30:25  -177.524039c  -4.97  -3.17
iter:  45 15:30:32  -177.507141c  -5.44  -2.99
iter:  46 15:30:35  -177.524206c  -5.04  -3.20
iter:  47 15:30:37  -177.517251c  -4.58  -3.01
iter:  48 15:30:40  -177.517034c  -4.54  -3.10
iter:  49 15:30:43  -177.517690c  -4.75  -3.10
iter:  50 15:30:46  -177.557605c  -4.50  -3.16
iter:  51 15:30:49  -177.509291c  -4.85  -2.87
iter:  52 15:30:51  -177.502495c  -5.63  -3.17
iter:  53 15:30:54  -177.506490c  -5.74  -3.31
iter:  54 15:30:57  -177.505717c  -5.19  -3.26
iter:  55 15:31:00  -177.504165c  -5.13  -3.31
iter:  56 15:31:06  -177.537397c  -4.84  -3.30
iter:  57 15:31:10  -177.544814c  -4.58  -2.98
iter:  58 15:31:13  -177.508275c  -4.86  -2.93
iter:  59 15:31:15  -177.504317c  -5.24  -3.33
iter:  60 15:31:18  -177.502207c  -5.48  -3.38
iter:  61 15:31:21  -177.502752c  -6.08  -3.46
iter:  62 15:31:24  -177.504037c  -5.87  -3.51
iter:  63 15:31:27  -177.521050c  -5.18  -3.41
iter:  64 15:31:29  -177.505634c  -5.14  -3.08
iter:  65 15:31:32  -177.508162c  -5.16  -3.41
iter:  66 15:31:35  -177.506509c  -5.15  -3.37
iter:  67 15:31:41  -177.501205c  -5.39  -3.46
iter:  68 15:31:44  -177.502303c  -6.27  -3.56
iter:  69 15:31:47  -177.503277c  -6.06  -3.56
iter:  70 15:31:50  -177.501923c  -6.19  -3.51
iter:  71 15:31:53  -177.501650c  -5.88  -3.63
iter:  72 15:31:56  -177.502866c  -5.61  -3.59
iter:  73 15:31:58  -177.507043c  -5.23  -3.57
iter:  74 15:32:01  -177.504885c  -5.43  -3.52
iter:  75 15:32:04  -177.504359c  -5.67  -3.44
iter:  76 15:32:07  -177.501566c  -5.94  -3.45
iter:  77 15:32:10  -177.501652c  -6.40  -3.73
iter:  78 15:32:12  -177.501609c  -7.02  -3.79
iter:  79 15:32:19  -177.501073c  -6.00  -3.81
iter:  80 15:32:22  -177.504877c  -5.69  -3.72
iter:  81 15:32:24  -177.507863c  -5.62  -3.50
iter:  82 15:32:27  -177.503826c  -5.60  -3.38
iter:  83 15:32:30  -177.501470c  -5.71  -3.63
iter:  84 15:32:33  -177.501250c  -6.37  -3.79
iter:  85 15:32:36  -177.501715c  -6.84  -3.88
iter:  86 15:32:38  -177.501108c  -6.59  -3.92
iter:  87 15:32:41  -177.501541c  -6.72  -3.91
iter:  88 15:32:44  -177.501870c  -6.21  -3.78
iter:  89 15:32:47  -177.503015c  -5.80  -3.79
iter:  90 15:32:53  -177.502457c  -5.84  -3.83
iter:  91 15:32:56  -177.500940c  -6.15  -3.83
iter:  92 15:32:59  -177.501686c  -6.42  -3.96
iter:  93 15:33:02  -177.501413c  -7.32  -3.93
iter:  94 15:33:05  -177.501406c  -7.31  -4.14c
iter:  95 15:33:07  -177.501128c  -7.02  -4.08c
iter:  96 15:33:10  -177.501470c  -6.49  -4.12c
iter:  97 15:33:13  -177.502196c  -6.37  -4.01c
iter:  98 15:33:16  -177.502432c  -6.04  -4.08c
iter:  99 15:33:19  -177.501394c  -6.36  -3.68
iter: 100 15:33:22  -177.501158c  -6.79  -3.94
iter: 101 15:33:25  -177.501253c  -7.61c -4.25c

Converged after 101 iterations.

Dipole moment: (-0.591050, -0.284071, 0.135217) |e|*Ang

Energy contributions relative to reference atoms: (reference = -1116960.938401)

Kinetic:       +266.186244
Potential:     -215.473575
External:        +0.000000
XC:            -231.030962
Entropy (-ST):   -4.245131
Local:           +4.939606
SIC:             +0.000000
--------------------------
Free energy:   -179.623818
Extrapolated:  -177.501253

 Band  Eigenvalues  Occupancy
    0    -65.25738    2.00000
    1    -65.23898    2.00000
    2    -65.23810    2.00000
    3    -65.23784    2.00000
    4    -65.23757    2.00000
    5    -65.23701    2.00000
    6    -65.22940    2.00000
    7    -65.22776    2.00000
    8    -65.22292    2.00000
    9    -65.00908    2.00000
   10    -65.00826    2.00000
   11    -65.00790    2.00000
   12    -65.00743    2.00000
   13    -65.00630    2.00000
   14    -65.00619    2.00000
   15    -64.99687    2.00000
   16    -64.99665    2.00000
   17    -64.99512    2.00000
   18    -64.99502    2.00000
   19    -64.91220    2.00000
   20    -64.91135    2.00000
   21    -64.91091    2.00000
   22    -64.91043    2.00000
   23    -64.90957    2.00000
   24    -64.90899    2.00000
   25    -64.87864    2.00000
   26    -64.87855    2.00000
   27    -64.83099    2.00000
   28    -64.83063    2.00000
   29    -64.82998    2.00000
   30    -64.82961    2.00000
   31    -64.82916    2.00000
   32    -64.82886    2.00000
   33    -64.82749    2.00000
   34    -64.82675    2.00000
   35    -64.82649    2.00000
   36    -64.82613    2.00000
   37    -64.82559    2.00000
   38    -64.82451    2.00000
   39    -64.81990    2.00000
   40    -64.81853    2.00000
   41    -64.81847    2.00000
   42    -64.81841    2.00000
   43    -64.81729    2.00000
   44    -64.81664    2.00000
   45    -64.81567    2.00000
   46    -64.81401    2.00000
   47    -64.73823    2.00000
   48    -64.73818    2.00000
   49    -64.73815    2.00000
   50    -64.73751    2.00000
   51    -64.73703    2.00000
   52    -64.73675    2.00000
   53    -64.73660    2.00000
   54    -64.73600    2.00000
   55    -64.73558    2.00000
   56    -64.73525    2.00000
   57    -64.73517    2.00000
   58    -64.73317    2.00000
   59    -64.72703    2.00000
   60    -64.71708    2.00000
   61    -64.71165    2.00000
   62    -64.70824    2.00000
   63    -64.70739    2.00000
   64    -64.70669    2.00000
   65    -64.70664    2.00000
   66    -64.70661    2.00000
   67    -64.70617    2.00000
   68    -64.70608    2.00000
   69    -64.70497    2.00000
   70    -64.70476    2.00000
   71    -64.70459    2.00000
   72    -64.70328    2.00000
   73    -64.70271    2.00000
   74    -64.70245    2.00000
   75    -64.70168    2.00000
   76    -64.70023    2.00000
   77    -64.69834    2.00000
   78    -64.69823    2.00000
   79    -64.69782    2.00000
   80    -64.69449    2.00000
   81     -9.69109    2.00000
   82     -8.53258    2.00000
   83     -7.55623    2.00000
   84     -6.59310    2.00000
   85     -6.59228    2.00000
   86     -6.59199    2.00000
   87     -6.59104    2.00000
   88     -6.59056    2.00000
   89     -6.58359    2.00000
   90     -6.10174    2.00000
   91     -5.54496    2.00000
   92     -5.54468    2.00000
   93     -5.54337    2.00000
   94     -5.54221    2.00000
   95     -5.54208    2.00000
   96     -5.53174    2.00000
   97     -4.82809    2.00000
   98     -4.82784    2.00000
   99     -4.82777    2.00000
  100     -4.82730    2.00000
  101     -4.82706    2.00000
  102     -4.82640    2.00000
  103     -4.63166    2.00000
  104     -4.63019    2.00000
  105     -4.60992    2.00000
  106     -4.60970    2.00000
  107     -4.60674    2.00000
  108     -4.60623    2.00000
  109     -4.50596    2.00000
  110     -4.50486    2.00000
  111     -4.50367    2.00000
  112     -4.50078    2.00000
  113     -4.50045    2.00000
  114     -4.49385    2.00000
  115     -4.30117    2.00000
  116     -4.30040    2.00000
  117     -4.29782    2.00000
  118     -4.29752    2.00000
  119     -4.01643    2.00000
  120     -4.01488    2.00000
  121     -4.01379    2.00000
  122     -4.01375    2.00000
  123     -4.01334    2.00000
  124     -4.00663    2.00000
  125     -3.59777    2.00000
  126     -3.59513    2.00000
  127     -3.56366    2.00000
  128     -3.56346    2.00000
  129     -3.56172    2.00000
  130     -3.56085    2.00000
  131     -3.56062    2.00000
  132     -3.55459    2.00000
  133     -3.52650    2.00000
  134     -3.47019    2.00000
  135     -3.27816    2.00000
  136     -3.27808    2.00000
  137     -3.26926    2.00000
  138     -3.26305    2.00000
  139     -3.25109    2.00000
  140     -3.25073    2.00000
  141     -3.21455    2.00000
  142     -3.20909    2.00000
  143     -3.20750    2.00000
  144     -3.20609    2.00000
  145     -3.20542    2.00000
  146     -3.20502    2.00000
  147     -3.20480    2.00000
  148     -3.19812    2.00000
  149     -3.16882    2.00000
  150     -3.16753    2.00000
  151     -3.15099    2.00000
  152     -3.15084    2.00000
  153     -3.06159    2.00000
  154     -3.06086    2.00000
  155     -3.06052    2.00000
  156     -3.06022    2.00000
  157     -3.05967    2.00000
  158     -3.05912    2.00000
  159     -2.99051    2.00000
  160     -2.99033    2.00000
  161     -2.95679    2.00000
  162     -2.94963    2.00000
  163     -2.94711    2.00000
  164     -2.94379    2.00000
  165     -2.94247    2.00000
  166     -2.92290    1.99999
  167     -2.62781    1.99990
  168     -2.62674    1.99990
  169     -2.62489    1.99989
  170     -2.62334    1.99989
  171     -2.62281    1.99989
  172     -2.62101    1.99989
  173     -2.34685    1.99828
  174     -2.34651    1.99827
  175     -2.34443    1.99824
  176     -2.34387    1.99823
  177     -2.29762    1.99718
  178     -2.29753    1.99718
  179     -2.28415    1.99678
  180     -2.28325    1.99675
  181     -2.28214    1.99671
  182     -2.28147    1.99669
  183     -2.28132    1.99669
  184     -2.28064    1.99666
  185     -2.23828    1.99491
  186     -2.08147    1.97580
  187     -2.07900    1.97520
  188     -2.07676    1.97465
  189     -2.07668    1.97463
  190     -2.07631    1.97454
  191     -2.06704    1.97210
  192     -1.92189    1.88608
  193     -1.92169    1.88586
  194     -1.89775    1.85718
  195     -1.89741    1.85674
  196     -1.89704    1.85624
  197     -1.89602    1.85487
  198     -1.89594    1.85478
  199     -1.89558    1.85429
  200     -1.80574    1.67647
  201     -1.80076    1.66275
  202     -1.79604    1.64929
  203     -1.79546    1.64763
  204     -1.76296    1.54322
  205     -1.76223    1.54064
  206     -1.76215    1.54036
  207     -1.76161    1.53843
  208     -1.76148    1.53798
  209     -1.76137    1.53758
  210     -1.73264    1.42771
  211     -1.73132    1.42233
  212     -1.70617    1.31380
  213     -1.70568    1.31160
  214     -1.70534    1.31006
  215     -1.70529    1.30984
  216     -1.70506    1.30879
  217     -1.70493    1.30821
  218     -1.61962    0.89243
  219     -1.61952    0.89190
  220     -1.56742    0.64687
  221     -1.56681    0.64423
  222     -1.56615    0.64133
  223     -1.56593    0.64039
  224     -1.56588    0.64017
  225     -1.56533    0.63779
  226     -1.54958    0.57139
  227     -1.54941    0.57068
  228     -1.53273    0.50517
  229     -1.53251    0.50431
  230     -1.53188    0.50194
  231     -1.50396    0.40440
  232     -1.05174    0.00549
  233      1.00411    0.00000
  234      1.00542    0.00000
  235      1.05939    0.00000
  236      1.05998    0.00000
  237      1.06342    0.00000
  238      1.12493    0.00000
  239      2.94276    0.00000
  240      3.26893    0.00000
  241      3.65942    0.00000
  242      3.84579    0.00000
  243      3.87153    0.00000
  244      3.95340    0.00000
  245      3.95776    0.00000
  246      3.95984    0.00000
  247      3.96024    0.00000
  248      4.03776    0.00000
  249      4.03891    0.00000
  250      4.04645    0.00000
  251      4.28773    0.00000
  252      4.40888    0.00000
  253      4.43083    0.00000
  254      4.70556    0.00000
  255      4.85817    0.00000
  256      4.86929    0.00000
  257      5.24863    0.00000
  258      5.81287    0.00000
  259      5.89936    0.00000
  260      6.22161    0.00000
  261      6.27518    0.00000
  262      6.27702    0.00000
  263      6.30842    0.00000
  264      6.39927    0.00000

Fermi level: -1.64122

Gap: 0.085 eV
Transition (v -> c):
  (s=0, k=0, n=217, [0.00, 0.00, 0.00]) -> (s=0, k=0, n=218, [0.00, 0.00, 0.00])
No difference between direct/indirect transitions

Forces in eV/Ang:
  0 Ni    0.02395   -0.00879    0.57210
  1 Ni    0.00013   -0.00390    0.59379
  2 Ni   -0.02336   -0.00901    0.57216
  3 Ni   -0.00989   -0.00435    0.57566
  4 Ni    0.01000   -0.00561    0.57702
  5 Ni    0.00018    0.02218    0.57866
  6 Ni   -0.00133    0.00741    0.56914
  7 Ni    0.00498    0.00166    0.60060
  8 Ni   -0.00342    0.00117    0.60260
  9 Ni   -0.00276   -0.00067    0.03318
 10 Ni    0.00272    0.02825    0.00375
 11 Ni    0.00184    0.02337   -0.00062
 12 Ni    0.02422   -0.01078   -0.00510
 13 Ni   -0.00391    0.01889   -0.04563
 14 Ni   -0.02219   -0.01049   -0.00276
 15 Ni    0.03035   -0.02069    0.00415
 16 Ni   -0.03101   -0.02386    0.00903
 17 Ni    0.00079   -0.00033   -0.02027
 18 Ni   -0.00124    0.01115   -0.58287
 19 Ni   -0.00344   -0.01486   -0.58590
 20 Ni    0.00477   -0.01720   -0.58947
 21 Ni   -0.03770   -0.00479   -0.59717
 22 Ni   -0.00136   -0.08531   -0.59385
 23 Ni    0.04433   -0.00954   -0.60825
 24 Ni   -0.09757    0.07622   -0.66542
 25 Ni    0.08565    0.07339   -0.65463
 26 Ni    0.00261   -0.00088   -0.57766
 27 H    -3.43602    0.00933   -7.55358
 28 H     3.43858   -0.04175    7.78020

System changes: positions 

Initializing position-dependent things.

Density initialized from wave functions
                                         
                                         
                                         
                                         
                                         
                   H                     
                  H                      
                                         
                Ni    Ni    Ni           
           Ni    NNi   NNi   Ni          
                                         
       Ni   NNi   NNi   Ni               
        Ni    Ni   NNi   Ni    Ni        
                                         
               Ni    Ni    Ni            
           Ni    Ni    Ni                
                                         
                                         
                                         
                                         

Positions:
   0 Ni     1.244850    0.718391   10.008173    ( 0.0000,  0.0000,  0.0000)
   1 Ni     3.733526    0.718461   10.008483    ( 0.0000,  0.0000,  0.0000)
   2 Ni     6.222206    0.718388   10.008174    ( 0.0000,  0.0000,  0.0000)
   3 Ni     2.488875    2.874006   10.008224    ( 0.0000,  0.0000,  0.0000)
   4 Ni     4.978175    2.873988   10.008243    ( 0.0000,  0.0000,  0.0000)
   5 Ni     7.467050    2.874385   10.008267    ( 0.0000,  0.0000,  0.0000)
   6 Ni     3.733505    5.029725   10.008131    ( 0.0000,  0.0000,  0.0000)
   7 Ni     6.222611    5.029643   10.008580    ( 0.0000,  0.0000,  0.0000)
   8 Ni     8.711507    5.029636   10.008609    ( 0.0000,  0.0000,  0.0000)
   9 Ni    -0.000039    1.437024   12.032747    ( 0.0000,  0.0000,  0.0000)
  10 Ni     2.489055    1.437438   12.032327    ( 0.0000,  0.0000,  0.0000)
  11 Ni     4.978058    1.437368   12.032264    ( 0.0000,  0.0000,  0.0000)
  12 Ni     1.244854    3.592431   12.032200    ( 0.0000,  0.0000,  0.0000)
  13 Ni     3.733468    3.592855   12.031621    ( 0.0000,  0.0000,  0.0000)
  14 Ni     6.222223    3.592435   12.032234    ( 0.0000,  0.0000,  0.0000)
  15 Ni     2.489449    5.747840   12.032332    ( 0.0000,  0.0000,  0.0000)
  16 Ni     4.977589    5.747795   12.032402    ( 0.0000,  0.0000,  0.0000)
  17 Ni     7.467059    5.748131   12.031983    ( 0.0000,  0.0000,  0.0000)
  18 Ni    -0.000018    0.000159   14.056219    ( 0.0000,  0.0000,  0.0000)
  19 Ni     2.488967   -0.000212   14.056176    ( 0.0000,  0.0000,  0.0000)
  20 Ni     4.978100   -0.000246   14.056125    ( 0.0000,  0.0000,  0.0000)
  21 Ni     1.243969    2.155483   14.056015    ( 0.0000,  0.0000,  0.0000)
  22 Ni     3.733504    2.154332   14.056062    ( 0.0000,  0.0000,  0.0000)
  23 Ni     6.223173    2.155415   14.055857    ( 0.0000,  0.0000,  0.0000)
  24 Ni     2.487622    4.312191   14.055040    ( 0.0000,  0.0000,  0.0000)
  25 Ni     4.979255    4.312150   14.055194    ( 0.0000,  0.0000,  0.0000)
  26 Ni     7.467085    4.311089   14.056294    ( 0.0000,  0.0000,  0.0000)
  27 H      3.556992    3.233460   16.074299    ( 0.0000,  0.0000,  0.0000)
  28 H      3.910092    3.232730   16.844733    ( 0.0000,  0.0000,  0.0000)

Unit cell:
           periodic     x           y           z      points  spacing
  1. axis:    yes    7.467048    0.000000    0.000000    30     0.2156
  2. axis:    yes    3.733524    6.466653    0.000000    30     0.2156
  3. axis:    no     0.000000    0.000000   24.064546    98     0.2456

  Lengths:   7.467048   7.467048  24.064546
  Angles:   90.000000  90.000000  60.000000

Effective grid spacing dv^(1/3) = 0.2362

     iter     time        total  log10-change:
                         energy   eigst   dens
iter:   1 15:42:48  -189.444071   -1.26
iter:   2 15:42:51  -258.479222   -1.04  -1.76
iter:   3 15:42:54  -181.345973   -1.42  -1.52
iter:   4 15:42:57  -198.588214   -1.75  -2.05
iter:   5 15:43:00  -180.928071   -2.37  -1.67
iter:   6 15:43:03  -178.657927   -2.67  -2.06
iter:   7 15:43:05  -178.781602   -3.49  -2.30
iter:   8 15:43:08  -179.231201   -3.14  -2.29
iter:   9 15:43:11  -179.866761   -2.88  -2.26
iter:  10 15:43:14  -178.690272   -3.31  -2.12
iter:  11 15:43:20  -178.866736   -3.25  -2.33
iter:  12 15:43:23  -178.456574   -3.56  -2.25
iter:  13 15:43:26  -178.304902   -3.42  -2.42
iter:  14 15:43:29  -178.465342c  -3.65  -2.64
iter:  15 15:43:31  -178.421947c  -3.33  -2.43
iter:  16 15:43:34  -178.161781   -3.53  -2.56
iter:  17 15:43:37  -178.214985   -3.63  -2.86
iter:  18 15:43:40  -178.162809c  -4.07  -2.79
iter:  19 15:43:43  -178.134249c  -4.26  -2.79
iter:  20 15:43:45  -178.124735c  -4.26  -3.01
iter:  21 15:43:48  -178.153199c  -4.65  -2.99
iter:  22 15:43:51  -178.117216c  -4.81  -2.84
iter:  23 15:43:57  -178.115299c  -4.57  -3.12
iter:  24 15:44:00  -178.156348c  -4.23  -3.10
iter:  25 15:44:03  -178.118571c  -4.57  -2.92
iter:  26 15:44:06  -178.138467c  -4.38  -3.12
iter:  27 15:44:09  -178.186897c  -4.39  -3.00
iter:  28 15:44:11  -178.105330c  -4.60  -2.79
iter:  29 15:44:14  -178.107096c  -5.31  -3.33
iter:  30 15:44:17  -178.110220c  -5.14  -3.36
iter:  31 15:44:20  -178.105675c  -5.29  -3.19
iter:  32 15:44:23  -178.109198c  -5.06  -3.37
iter:  33 15:44:25  -178.147900c  -4.75  -3.27
iter:  34 15:44:32  -178.115974c  -4.62  -2.90
iter:  35 15:44:35  -178.106623c  -4.90  -3.25
iter:  36 15:44:37  -178.121134c  -4.88  -3.33
iter:  37 15:44:40  -178.104817c  -5.08  -3.14
iter:  38 15:44:43  -178.104918c  -5.77  -3.47
iter:  39 15:44:46  -178.110028c  -5.56  -3.52
iter:  40 15:44:49  -178.108070c  -5.15  -3.26
iter:  41 15:44:51  -178.108232c  -5.26  -3.29
iter:  42 15:44:54  -178.109233c  -5.18  -3.42
iter:  43 15:44:57  -178.112580c  -4.91  -3.30
iter:  44 15:45:00  -178.106311c  -5.20  -3.27
iter:  45 15:45:03  -178.107456c  -5.59  -3.45
iter:  46 15:45:09  -178.107017c  -5.51  -3.38
iter:  47 15:45:12  -178.103359c  -5.83  -3.47
iter:  48 15:45:15  -178.104364c  -6.28  -3.64
iter:  49 15:45:18  -178.105914c  -5.53  -3.62
iter:  50 15:45:21  -178.104865c  -5.44  -3.47
iter:  51 15:45:23  -178.107873c  -5.62  -3.63
iter:  52 15:45:26  -178.104075c  -5.58  -3.37
iter:  53 15:45:29  -178.104590c  -5.60  -3.59
iter:  54 15:45:32  -178.103242c  -6.29  -3.73
iter:  55 15:45:35  -178.103913c  -6.34  -3.90
iter:  56 15:45:37  -178.103475c  -6.30  -3.73
iter:  57 15:45:44  -178.104372c  -6.18  -3.81
iter:  58 15:45:47  -178.104799c  -6.12  -3.64
iter:  59 15:45:49  -178.103238c  -5.64  -3.71
iter:  60 15:45:52  -178.103697c  -5.80  -3.72
iter:  61 15:45:55  -178.104148c  -6.07  -3.84
iter:  62 15:45:58  -178.103531c  -6.13  -3.67
iter:  63 15:46:01  -178.103436c  -6.44  -3.90
iter:  64 15:46:04  -178.102986c  -7.09  -3.82
iter:  65 15:46:07  -178.103924c  -6.42  -4.06c
iter:  66 15:46:09  -178.103239c  -6.06  -3.90
iter:  67 15:46:12  -178.104938c  -5.98  -3.88
iter:  68 15:46:18  -178.103412c  -5.94  -3.61
iter:  69 15:46:21  -178.105869c  -5.87  -3.87
iter:  70 15:46:24  -178.103442c  -6.26  -3.49
iter:  71 15:46:27  -178.102935c  -6.76  -4.09c
iter:  72 15:46:30  -178.103254c  -6.71  -4.15c
iter:  73 15:46:32  -178.103312c  -6.95  -4.16c
iter:  74 15:46:35  -178.103287c  -6.58  -4.00c
iter:  75 15:46:38  -178.106019c  -6.03  -4.15c
iter:  76 15:46:41  -178.102988c  -6.22  -3.51
iter:  77 15:46:44  -178.103390c  -6.55  -4.06c
iter:  78 15:46:46  -178.103008c  -6.61  -4.16c
iter:  79 15:46:49  -178.103080c  -7.20  -4.21c
iter:  80 15:46:56  -178.103008c  -7.37  -4.17c
iter:  81 15:46:58  -178.103564c  -6.69  -4.32c
iter:  82 15:47:01  -178.103258c  -6.79  -3.84
iter:  83 15:47:04  -178.102927c  -6.98  -4.18c
iter:  84 15:47:07  -178.103263c  -6.67  -4.27c
iter:  85 15:47:10  -178.103142c  -6.84  -4.19c
iter:  86 15:47:12  -178.103086c  -7.12  -4.21c
iter:  87 15:47:15  -178.103251c  -7.30  -4.45c
iter:  88 15:47:18  -178.102982c  -7.34  -4.05c
iter:  89 15:47:21  -178.103096c  -7.70c -4.47c

Converged after 89 iterations.

Dipole moment: (-0.516681, -0.287108, 0.140176) |e|*Ang

Energy contributions relative to reference atoms: (reference = -1116960.938401)

Kinetic:       +260.624179
Potential:     -211.785169
External:        +0.000000
XC:            -229.693932
Entropy (-ST):   -4.204195
Local:           +4.853923
SIC:             +0.000000
--------------------------
Free energy:   -180.205194
Extrapolated:  -178.103096

 Band  Eigenvalues  Occupancy
    0    -65.27666    2.00000
    1    -65.25803    2.00000
    2    -65.25748    2.00000
    3    -65.25727    2.00000
    4    -65.25616    2.00000
    5    -65.25579    2.00000
    6    -65.24817    2.00000
    7    -65.24651    2.00000
    8    -65.24170    2.00000
    9    -65.01896    2.00000
   10    -65.01763    2.00000
   11    -65.01720    2.00000
   12    -65.01685    2.00000
   13    -65.01640    2.00000
   14    -65.01546    2.00000
   15    -65.00642    2.00000
   16    -65.00598    2.00000
   17    -65.00470    2.00000
   18    -65.00426    2.00000
   19    -64.92158    2.00000
   20    -64.92065    2.00000
   21    -64.92034    2.00000
   22    -64.91930    2.00000
   23    -64.91891    2.00000
   24    -64.91808    2.00000
   25    -64.88786    2.00000
   26    -64.88762    2.00000
   27    -64.83628    2.00000
   28    -64.83546    2.00000
   29    -64.83501    2.00000
   30    -64.83498    2.00000
   31    -64.83428    2.00000
   32    -64.83403    2.00000
   33    -64.83272    2.00000
   34    -64.83169    2.00000
   35    -64.83148    2.00000
   36    -64.83137    2.00000
   37    -64.82974    2.00000
   38    -64.82884    2.00000
   39    -64.82493    2.00000
   40    -64.82361    2.00000
   41    -64.82352    2.00000
   42    -64.82346    2.00000
   43    -64.82232    2.00000
   44    -64.82073    2.00000
   45    -64.82037    2.00000
   46    -64.81870    2.00000
   47    -64.74379    2.00000
   48    -64.74322    2.00000
   49    -64.74299    2.00000
   50    -64.74286    2.00000
   51    -64.74226    2.00000
   52    -64.74189    2.00000
   53    -64.74155    2.00000
   54    -64.74134    2.00000
   55    -64.74051    2.00000
   56    -64.73996    2.00000
   57    -64.73947    2.00000
   58    -64.73805    2.00000
   59    -64.73690    2.00000
   60    -64.72829    2.00000
   61    -64.72239    2.00000
   62    -64.71881    2.00000
   63    -64.71775    2.00000
   64    -64.71740    2.00000
   65    -64.71707    2.00000
   66    -64.71667    2.00000
   67    -64.71539    2.00000
   68    -64.71364    2.00000
   69    -64.71343    2.00000
   70    -64.71305    2.00000
   71    -64.71266    2.00000
   72    -64.71172    2.00000
   73    -64.71169    2.00000
   74    -64.71079    2.00000
   75    -64.70974    2.00000
   76    -64.70924    2.00000
   77    -64.70904    2.00000
   78    -64.70868    2.00000
   79    -64.70863    2.00000
   80    -64.70578    2.00000
   81     -9.71198    2.00000
   82     -7.84222    2.00000
   83     -7.25891    2.00000
   84     -6.61928    2.00000
   85     -6.61889    2.00000
   86     -6.61868    2.00000
   87     -6.61691    2.00000
   88     -6.61593    2.00000
   89     -6.58947    2.00000
   90     -6.09503    2.00000
   91     -5.56456    2.00000
   92     -5.56437    2.00000
   93     -5.56292    2.00000
   94     -5.56142    2.00000
   95     -5.56119    2.00000
   96     -5.53552    2.00000
   97     -4.84635    2.00000
   98     -4.84609    2.00000
   99     -4.84595    2.00000
  100     -4.84557    2.00000
  101     -4.84549    2.00000
  102     -4.84264    2.00000
  103     -4.65914    2.00000
  104     -4.65839    2.00000
  105     -4.63736    2.00000
  106     -4.63691    2.00000
  107     -4.63273    2.00000
  108     -4.63232    2.00000
  109     -4.52020    2.00000
  110     -4.51834    2.00000
  111     -4.51609    2.00000
  112     -4.51443    2.00000
  113     -4.51434    2.00000
  114     -4.50089    2.00000
  115     -4.32432    2.00000
  116     -4.32408    2.00000
  117     -4.32033    2.00000
  118     -4.31996    2.00000
  119     -4.03562    2.00000
  120     -4.03422    2.00000
  121     -4.03237    2.00000
  122     -4.03223    2.00000
  123     -4.03201    2.00000
  124     -4.02148    2.00000
  125     -3.60862    2.00000
  126     -3.60631    2.00000
  127     -3.57236    2.00000
  128     -3.57186    2.00000
  129     -3.56901    2.00000
  130     -3.56892    2.00000
  131     -3.56803    2.00000
  132     -3.55959    2.00000
  133     -3.52498    2.00000
  134     -3.46964    2.00000
  135     -3.29275    2.00000
  136     -3.29267    2.00000
  137     -3.27875    2.00000
  138     -3.27032    2.00000
  139     -3.25660    2.00000
  140     -3.25629    2.00000
  141     -3.22217    2.00000
  142     -3.21548    2.00000
  143     -3.21355    2.00000
  144     -3.21324    2.00000
  145     -3.21116    2.00000
  146     -3.21092    2.00000
  147     -3.21052    2.00000
  148     -3.20157    2.00000
  149     -3.17594    2.00000
  150     -3.17542    2.00000
  151     -3.16732    2.00000
  152     -3.16713    2.00000
  153     -3.08811    2.00000
  154     -3.08784    2.00000
  155     -3.08730    2.00000
  156     -3.08706    2.00000
  157     -3.08633    2.00000
  158     -3.08551    2.00000
  159     -2.99665    2.00000
  160     -2.99634    2.00000
  161     -2.96740    2.00000
  162     -2.95846    2.00000
  163     -2.95532    2.00000
  164     -2.95210    2.00000
  165     -2.94998    2.00000
  166     -2.92470    1.99999
  167     -2.63754    1.99990
  168     -2.63564    1.99990
  169     -2.63380    1.99990
  170     -2.63118    1.99990
  171     -2.63107    1.99990
  172     -2.62869    1.99989
  173     -2.34589    1.99822
  174     -2.34504    1.99820
  175     -2.34295    1.99816
  176     -2.34233    1.99815
  177     -2.30713    1.99737
  178     -2.30685    1.99736
  179     -2.29866    1.99714
  180     -2.29669    1.99708
  181     -2.29642    1.99708
  182     -2.29507    1.99704
  183     -2.29495    1.99703
  184     -2.29454    1.99702
  185     -2.21667    1.99352
  186     -2.08450    1.97592
  187     -2.08166    1.97523
  188     -2.07876    1.97451
  189     -2.07854    1.97445
  190     -2.07790    1.97429
  191     -2.06497    1.97079
  192     -1.93232    1.89424
  193     -1.93177    1.89369
  194     -1.90629    1.86492
  195     -1.90572    1.86419
  196     -1.90517    1.86350
  197     -1.90388    1.86185
  198     -1.90380    1.86174
  199     -1.90333    1.86115
  200     -1.81024    1.68170
  201     -1.80438    1.66571
  202     -1.79868    1.64954
  203     -1.79800    1.64757
  204     -1.76889    1.55496
  205     -1.76883    1.55476
  206     -1.76777    1.55108
  207     -1.76669    1.54732
  208     -1.76649    1.54660
  209     -1.76628    1.54589
  210     -1.73524    1.42786
  211     -1.73404    1.42297
  212     -1.70987    1.31893
  213     -1.70931    1.31641
  214     -1.70909    1.31542
  215     -1.70845    1.31255
  216     -1.70818    1.31131
  217     -1.70808    1.31084
  218     -1.62145    0.88882
  219     -1.62113    0.88720
  220     -1.56663    0.63232
  221     -1.56630    0.63086
  222     -1.56552    0.62751
  223     -1.56540    0.62702
  224     -1.56501    0.62533
  225     -1.56466    0.62383
  226     -1.55384    0.57835
  227     -1.55089    0.56629
  228     -1.53145    0.49078
  229     -1.53062    0.48775
  230     -1.53054    0.48744
  231     -1.50137    0.38805
  232     -1.01728    0.00380
  233      0.97283    0.00000
  234      1.01039    0.00000
  235      1.07356    0.00000
  236      1.07453    0.00000
  237      1.07797    0.00000
  238      1.09169    0.00000
  239      2.83394    0.00000
  240      3.24456    0.00000
  241      3.61345    0.00000
  242      3.78108    0.00000
  243      3.85459    0.00000
  244      3.94218    0.00000
  245      3.94721    0.00000
  246      3.94955    0.00000
  247      3.94994    0.00000
  248      4.04974    0.00000
  249      4.05096    0.00000
  250      4.05914    0.00000
  251      4.21943    0.00000
  252      4.39307    0.00000
  253      4.42048    0.00000
  254      4.72922    0.00000
  255      4.82733    0.00000
  256      4.86398    0.00000
  257      5.16243    0.00000
  258      5.58658    0.00000
  259      5.82976    0.00000
  260      6.04998    0.00000
  261      6.27178    0.00000
  262      6.27367    0.00000
  263      6.31460    0.00000
  264      6.39628    0.00000

Fermi level: -1.64378

Gap: 0.087 eV
Transition (v -> c):
  (s=0, k=0, n=217, [0.00, 0.00, 0.00]) -> (s=0, k=0, n=218, [0.00, 0.00, 0.00])
No difference between direct/indirect transitions

Forces in eV/Ang:
  0 Ni    0.02598   -0.00832    0.52851
  1 Ni   -0.00085   -0.00140    0.55746
  2 Ni   -0.02385   -0.00595    0.52936
  3 Ni   -0.00837   -0.00639    0.53134
  4 Ni    0.01034   -0.00701    0.53565
  5 Ni   -0.00180    0.02217    0.53860
  6 Ni   -0.00005    0.00643    0.52380
  7 Ni    0.00473    0.00116    0.56504
  8 Ni   -0.00442    0.00072    0.56900
  9 Ni   -0.00609   -0.00224    0.04000
 10 Ni    0.00853    0.02949    0.00341
 11 Ni    0.00203    0.02174   -0.00560
 12 Ni    0.02451   -0.01188   -0.00951
 13 Ni   -0.00566    0.01262   -0.04997
 14 Ni   -0.02246   -0.01011   -0.00370
 15 Ni    0.02978   -0.01488    0.00201
 16 Ni   -0.02888   -0.02344    0.01246
 17 Ni   -0.00019    0.00262   -0.02201
 18 Ni   -0.00056    0.01492   -0.54524
 19 Ni   -0.00229   -0.01625   -0.55218
 20 Ni    0.00273   -0.01714   -0.55865
 21 Ni   -0.03603   -0.00342   -0.54638
 22 Ni   -0.00813   -0.04746   -0.41668
 23 Ni    0.04771   -0.00886   -0.56798
 24 Ni   -0.08269    0.05350   -0.55229
 25 Ni    0.07186    0.05848   -0.55509
 26 Ni    0.00083   -0.00212   -0.54035
 27 H     0.70672    0.00824    1.43129
 28 H    -0.70554   -0.04554   -1.42486

System changes: positions 

Initializing position-dependent things.

Density initialized from wave functions
                                         
                                         
                                         
                                         
                                         
                   H                     
                  H                      
                                         
                Ni    Ni    Ni           
           Ni    NNi   NNi   Ni          
                                         
       Ni   NNi   NNi   Ni               
        Ni    Ni   NNi   Ni    Ni        
                                         
               Ni    Ni    Ni            
           Ni    Ni    Ni                
                                         
                                         
                                         
                                         

Positions:
   0 Ni     1.245224    0.718270   10.015867    ( 0.0000,  0.0000,  0.0000)
   1 Ni     3.733514    0.718439   10.016589    ( 0.0000,  0.0000,  0.0000)
   2 Ni     6.221861    0.718299   10.015880    ( 0.0000,  0.0000,  0.0000)
   3 Ni     2.488752    2.873915   10.015960    ( 0.0000,  0.0000,  0.0000)
   4 Ni     4.978324    2.873888   10.016039    ( 0.0000,  0.0000,  0.0000)
   5 Ni     7.467026    2.874706   10.016104    ( 0.0000,  0.0000,  0.0000)
   6 Ni     3.733503    5.029819   10.015759    ( 0.0000,  0.0000,  0.0000)
   7 Ni     6.222680    5.029660   10.016796    ( 0.0000,  0.0000,  0.0000)
   8 Ni     8.711444    5.029646   10.016880    ( 0.0000,  0.0000,  0.0000)
   9 Ni    -0.000124    1.436993   12.033320    ( 0.0000,  0.0000,  0.0000)
  10 Ni     2.489172    1.437864   12.032376    ( 0.0000,  0.0000,  0.0000)
  11 Ni     4.978087    1.437684   12.032188    ( 0.0000,  0.0000,  0.0000)
  12 Ni     1.245209    3.592260   12.032067    ( 0.0000,  0.0000,  0.0000)
  13 Ni     3.733388    3.593044   12.030902    ( 0.0000,  0.0000,  0.0000)
  14 Ni     6.221898    3.592288   12.032181    ( 0.0000,  0.0000,  0.0000)
  15 Ni     2.489881    5.747619   12.032364    ( 0.0000,  0.0000,  0.0000)
  16 Ni     4.977168    5.747455   12.032579    ( 0.0000,  0.0000,  0.0000)
  17 Ni     7.467057    5.748166   12.031666    ( 0.0000,  0.0000,  0.0000)
  18 Ni    -0.000027    0.000371   14.048288    ( 0.0000,  0.0000,  0.0000)
  19 Ni     2.488932   -0.000446   14.048149    ( 0.0000,  0.0000,  0.0000)
  20 Ni     4.978141   -0.000494   14.048007    ( 0.0000,  0.0000,  0.0000)
  21 Ni     1.243446    2.155432   14.048054    ( 0.0000,  0.0000,  0.0000)
  22 Ni     3.733394    2.153607   14.049853    ( 0.0000,  0.0000,  0.0000)
  23 Ni     6.223861    2.155286   14.047594    ( 0.0000,  0.0000,  0.0000)
  24 Ni     2.486409    4.312989   14.046930    ( 0.0000,  0.0000,  0.0000)
  25 Ni     4.980310    4.313013   14.047057    ( 0.0000,  0.0000,  0.0000)
  26 Ni     7.467099    4.311060   14.048434    ( 0.0000,  0.0000,  0.0000)
  27 H      3.562739    3.233580   16.085121    ( 0.0000,  0.0000,  0.0000)
  28 H      3.904364    3.232074   16.832124    ( 0.0000,  0.0000,  0.0000)

Unit cell:
           periodic     x           y           z      points  spacing
  1. axis:    yes    7.467048    0.000000    0.000000    30     0.2156
  2. axis:    yes    3.733524    6.466653    0.000000    30     0.2156
  3. axis:    no     0.000000    0.000000   24.064546    98     0.2456

  Lengths:   7.467048   7.467048  24.064546
  Angles:   90.000000  90.000000  60.000000

Effective grid spacing dv^(1/3) = 0.2362

     iter     time        total  log10-change:
                         energy   eigst   dens
iter:   1 15:54:06  -178.934296   -2.52
iter:   2 15:54:09  -187.191361   -2.15  -2.29
iter:   3 15:54:12  -186.636262   -2.27  -1.84
iter:   4 15:54:14  -178.379503   -2.63  -1.83
iter:   5 15:54:17  -178.333475   -3.45  -2.64
iter:   6 15:54:20  -178.310700c  -4.11  -2.82
iter:   7 15:54:23  -178.275359c  -4.33  -2.87
iter:   8 15:54:25  -178.259369c  -4.54  -2.97
iter:   9 15:54:28  -178.315213c  -4.51  -3.15
iter:  10 15:54:31  -178.262705c  -4.56  -2.82
iter:  11 15:54:34  -178.252145c  -5.18  -3.06
iter:  12 15:54:36  -178.243079c  -5.27  -3.22
iter:  13 15:54:43  -178.239533c  -5.70  -3.31
iter:  14 15:54:46  -178.238139c  -5.76  -3.46
iter:  15 15:54:48  -178.243286c  -5.28  -3.46
iter:  16 15:54:51  -178.234569c  -5.49  -3.25
iter:  17 15:54:54  -178.235677c  -6.12  -3.58
iter:  18 15:54:57  -178.233431c  -5.82  -3.71
iter:  19 15:54:59  -178.233522c  -5.89  -3.73
iter:  20 15:55:02  -178.233971c  -6.10  -3.82
iter:  21 15:55:05  -178.234334c  -6.25  -3.89
iter:  22 15:55:08  -178.234441c  -6.26  -3.70
iter:  23 15:55:11  -178.232548c  -6.27  -3.87
iter:  24 15:55:17  -178.233555c  -6.76  -4.01c
iter:  25 15:55:20  -178.233385c  -6.61  -3.95
iter:  26 15:55:23  -178.233015c  -6.70  -4.04c
iter:  27 15:55:25  -178.233268c  -6.63  -4.05c
iter:  28 15:55:28  -178.232915c  -6.87  -3.95
iter:  29 15:55:31  -178.234051c  -6.59  -4.01c
iter:  30 15:55:34  -178.233105c  -6.83  -4.04c
iter:  31 15:55:36  -178.233057c  -6.87  -4.03c
iter:  32 15:55:39  -178.233314c  -6.99  -4.15c
iter:  33 15:55:42  -178.233316c  -6.92  -4.16c
iter:  34 15:55:45  -178.233377c  -7.30  -4.06c
iter:  35 15:55:48  -178.232579c  -6.89  -4.16c
iter:  36 15:55:54  -178.233460c  -6.96  -4.22c
iter:  37 15:55:57  -178.233316c  -7.10  -4.09c
iter:  38 15:56:00  -178.233060c  -7.10  -4.22c
iter:  39 15:56:02  -178.233194c  -6.99  -4.23c
iter:  40 15:56:05  -178.232989c  -7.36  -4.12c
iter:  41 15:56:08  -178.233415c  -7.36  -4.21c
iter:  42 15:56:11  -178.232815c  -7.14  -4.26c
iter:  43 15:56:13  -178.232854c  -7.32  -4.22c
iter:  44 15:56:16  -178.233058c  -7.27  -4.33c
iter:  45 15:56:19  -178.233107c  -7.08  -4.33c
iter:  46 15:56:22  -178.233176c  -7.26  -4.11c
iter:  47 15:56:28  -178.232731c  -7.49c -4.25c

Converged after 47 iterations.

Dipole moment: (-0.444813, -0.287876, 0.137564) |e|*Ang

Energy contributions relative to reference atoms: (reference = -1116960.938401)

Kinetic:       +263.719820
Potential:     -214.150321
External:        +0.000000
XC:            -230.605037
Entropy (-ST):   -4.166204
Local:           +4.885909
SIC:             +0.000000
--------------------------
Free energy:   -180.315833
Extrapolated:  -178.232731

 Band  Eigenvalues  Occupancy
    0    -65.28977    2.00000
    1    -65.27111    2.00000
    2    -65.27053    2.00000
    3    -65.27007    2.00000
    4    -65.26910    2.00000
    5    -65.26882    2.00000
    6    -65.26058    2.00000
    7    -65.25942    2.00000
    8    -65.25418    2.00000
    9    -65.02258    2.00000
   10    -65.02137    2.00000
   11    -65.02084    2.00000
   12    -65.02052    2.00000
   13    -65.02014    2.00000
   14    -65.01924    2.00000
   15    -65.01006    2.00000
   16    -65.00970    2.00000
   17    -65.00837    2.00000
   18    -65.00797    2.00000
   19    -64.92490    2.00000
   20    -64.92412    2.00000
   21    -64.92365    2.00000
   22    -64.92273    2.00000
   23    -64.92237    2.00000
   24    -64.92166    2.00000
   25    -64.89125    2.00000
   26    -64.89104    2.00000
   27    -64.83301    2.00000
   28    -64.83276    2.00000
   29    -64.83250    2.00000
   30    -64.83243    2.00000
   31    -64.83190    2.00000
   32    -64.83172    2.00000
   33    -64.82943    2.00000
   34    -64.82899    2.00000
   35    -64.82892    2.00000
   36    -64.82872    2.00000
   37    -64.82643    2.00000
   38    -64.82590    2.00000
   39    -64.82219    2.00000
   40    -64.82110    2.00000
   41    -64.82098    2.00000
   42    -64.82091    2.00000
   43    -64.81895    2.00000
   44    -64.81734    2.00000
   45    -64.81695    2.00000
   46    -64.81595    2.00000
   47    -64.74088    2.00000
   48    -64.74056    2.00000
   49    -64.74045    2.00000
   50    -64.74022    2.00000
   51    -64.74014    2.00000
   52    -64.74004    2.00000
   53    -64.73883    2.00000
   54    -64.73866    2.00000
   55    -64.73834    2.00000
   56    -64.73803    2.00000
   57    -64.73709    2.00000
   58    -64.73652    2.00000
   59    -64.73298    2.00000
   60    -64.72905    2.00000
   61    -64.72475    2.00000
   62    -64.72169    2.00000
   63    -64.72055    2.00000
   64    -64.72040    2.00000
   65    -64.71997    2.00000
   66    -64.71988    2.00000
   67    -64.71827    2.00000
   68    -64.71634    2.00000
   69    -64.71609    2.00000
   70    -64.71563    2.00000
   71    -64.71551    2.00000
   72    -64.71337    2.00000
   73    -64.71221    2.00000
   74    -64.71188    2.00000
   75    -64.71087    2.00000
   76    -64.70916    2.00000
   77    -64.70914    2.00000
   78    -64.70777    2.00000
   79    -64.70653    2.00000
   80    -64.70601    2.00000
   81     -9.73032    2.00000
   82     -7.86742    2.00000
   83     -7.31150    2.00000
   84     -6.63915    2.00000
   85     -6.63854    2.00000
   86     -6.63826    2.00000
   87     -6.63622    2.00000
   88     -6.63508    2.00000
   89     -6.61097    2.00000
   90     -6.10493    2.00000
   91     -5.57685    2.00000
   92     -5.57679    2.00000
   93     -5.57554    2.00000
   94     -5.57413    2.00000
   95     -5.57403    2.00000
   96     -5.54988    2.00000
   97     -4.85843    2.00000
   98     -4.85814    2.00000
   99     -4.85780    2.00000
  100     -4.85739    2.00000
  101     -4.85706    2.00000
  102     -4.85426    2.00000
  103     -4.67899    2.00000
  104     -4.67888    2.00000
  105     -4.65658    2.00000
  106     -4.65591    2.00000
  107     -4.65248    2.00000
  108     -4.65213    2.00000
  109     -4.52618    2.00000
  110     -4.52464    2.00000
  111     -4.52124    2.00000
  112     -4.52098    2.00000
  113     -4.52084    2.00000
  114     -4.50840    2.00000
  115     -4.34066    2.00000
  116     -4.33993    2.00000
  117     -4.33676    2.00000
  118     -4.33654    2.00000
  119     -4.04756    2.00000
  120     -4.04665    2.00000
  121     -4.04438    2.00000
  122     -4.04402    2.00000
  123     -4.04364    2.00000
  124     -4.03409    2.00000
  125     -3.61187    2.00000
  126     -3.61009    2.00000
  127     -3.57382    2.00000
  128     -3.57294    2.00000
  129     -3.57034    2.00000
  130     -3.57009    2.00000
  131     -3.56929    2.00000
  132     -3.56031    2.00000
  133     -3.51776    2.00000
  134     -3.46647    2.00000
  135     -3.30129    2.00000
  136     -3.30121    2.00000
  137     -3.27677    2.00000
  138     -3.26901    2.00000
  139     -3.25619    2.00000
  140     -3.25598    2.00000
  141     -3.22017    2.00000
  142     -3.21458    2.00000
  143     -3.21343    2.00000
  144     -3.21270    2.00000
  145     -3.21033    2.00000
  146     -3.21008    2.00000
  147     -3.20948    2.00000
  148     -3.20109    2.00000
  149     -3.17682    2.00000
  150     -3.17669    2.00000
  151     -3.17629    2.00000
  152     -3.17572    2.00000
  153     -3.10787    2.00000
  154     -3.10733    2.00000
  155     -3.10673    2.00000
  156     -3.10655    2.00000
  157     -3.10533    2.00000
  158     -3.10483    2.00000
  159     -2.99517    2.00000
  160     -2.99484    2.00000
  161     -2.96873    2.00000
  162     -2.96033    2.00000
  163     -2.95721    2.00000
  164     -2.95394    2.00000
  165     -2.95136    2.00000
  166     -2.92724    1.99999
  167     -2.63924    1.99991
  168     -2.63741    1.99991
  169     -2.63513    1.99991
  170     -2.63276    1.99990
  171     -2.63228    1.99990
  172     -2.62975    1.99990
  173     -2.33827    1.99815
  174     -2.33726    1.99814
  175     -2.33565    1.99811
  176     -2.33493    1.99809
  177     -2.30978    1.99755
  178     -2.30949    1.99754
  179     -2.30491    1.99742
  180     -2.30326    1.99738
  181     -2.30238    1.99736
  182     -2.30172    1.99734
  183     -2.30141    1.99733
  184     -2.30128    1.99733
  185     -2.21834    1.99389
  186     -2.08026    1.97592
  187     -2.07759    1.97527
  188     -2.07454    1.97452
  189     -2.07436    1.97447
  190     -2.07349    1.97425
  191     -2.06061    1.97076
  192     -1.93473    1.90071
  193     -1.93424    1.90025
  194     -1.90797    1.87219
  195     -1.90672    1.87069
  196     -1.90619    1.87004
  197     -1.90502    1.86862
  198     -1.90484    1.86839
  199     -1.90440    1.86785
  200     -1.80588    1.68139
  201     -1.80027    1.66608
  202     -1.79521    1.65176
  203     -1.79458    1.64993
  204     -1.76768    1.56540
  205     -1.76691    1.56276
  206     -1.76572    1.55869
  207     -1.76495    1.55604
  208     -1.76429    1.55375
  209     -1.76383    1.55216
  210     -1.73214    1.43253
  211     -1.73081    1.42709
  212     -1.70682    1.32428
  213     -1.70651    1.32287
  214     -1.70570    1.31926
  215     -1.70525    1.31725
  216     -1.70463    1.31442
  217     -1.70444    1.31357
  218     -1.61631    0.88439
  219     -1.61603    0.88301
  220     -1.55951    0.61993
  221     -1.55882    0.61699
  222     -1.55808    0.61382
  223     -1.55785    0.61287
  224     -1.55744    0.61110
  225     -1.55732    0.61060
  226     -1.54722    0.56864
  227     -1.54445    0.55741
  228     -1.52548    0.48444
  229     -1.52388    0.47857
  230     -1.52376    0.47815
  231     -1.49397    0.37827
  232     -1.00784    0.00360
  233      0.99876    0.00000
  234      1.02851    0.00000
  235      1.09142    0.00000
  236      1.09231    0.00000
  237      1.09617    0.00000
  238      1.11438    0.00000
  239      2.85538    0.00000
  240      3.24771    0.00000
  241      3.62431    0.00000
  242      3.79802    0.00000
  243      3.86872    0.00000
  244      3.93864    0.00000
  245      3.94419    0.00000
  246      3.94476    0.00000
  247      3.94596    0.00000
  248      4.06436    0.00000
  249      4.06562    0.00000
  250      4.07358    0.00000
  251      4.23853    0.00000
  252      4.39274    0.00000
  253      4.41607    0.00000
  254      4.72942    0.00000
  255      4.83423    0.00000
  256      4.86442    0.00000
  257      5.18202    0.00000
  258      5.61531    0.00000
  259      5.84392    0.00000
  260      6.06778    0.00000
  261      6.28102    0.00000
  262      6.28293    0.00000
  263      6.32266    0.00000
  264      6.40746    0.00000

Fermi level: -1.63954

Gap: 0.088 eV
Transition (v -> c):
  (s=0, k=0, n=217, [0.00, 0.00, 0.00]) -> (s=0, k=0, n=218, [0.00, 0.00, 0.00])
No difference between direct/indirect transitions

Forces in eV/Ang:
  0 Ni    0.02268   -0.00785    0.48927
  1 Ni   -0.00018   -0.00065    0.51424
  2 Ni   -0.02128   -0.00654    0.48970
  3 Ni   -0.01022   -0.00496    0.48894
  4 Ni    0.01162   -0.00650    0.49262
  5 Ni   -0.00132    0.02056    0.49843
  6 Ni   -0.00119    0.00819    0.48157
  7 Ni    0.00305   -0.00035    0.52241
  8 Ni   -0.00154   -0.00062    0.52722
  9 Ni   -0.00470   -0.00299    0.03317
 10 Ni    0.00834    0.02849    0.00601
 11 Ni    0.00032    0.02097   -0.00164
 12 Ni    0.02087   -0.01087   -0.00896
 13 Ni   -0.00552    0.00990   -0.03961
 14 Ni   -0.01872   -0.00972   -0.00376
 15 Ni    0.02773   -0.01261    0.00192
 16 Ni   -0.02798   -0.01935    0.01067
 17 Ni    0.00098    0.00081   -0.02118
 18 Ni   -0.00171    0.00838   -0.49964
 19 Ni   -0.00261   -0.01235   -0.50798
 20 Ni    0.00417   -0.01359   -0.51393
 21 Ni   -0.02912   -0.00008   -0.50611
 22 Ni   -0.00690   -0.04845   -0.41556
 23 Ni    0.03943   -0.00629   -0.52538
 24 Ni   -0.07945    0.05265   -0.53256
 25 Ni    0.06821    0.05595   -0.53352
 26 Ni    0.00168   -0.00455   -0.49540
 27 H     0.51439    0.00701    1.03076
 28 H    -0.50975   -0.04427   -1.00652

System changes: positions 

Initializing position-dependent things.

Density initialized from wave functions
                                         
                                         
                                         
                                         
                                         
                   H                     
                  H                      
                                         
                Ni    Ni    Ni           
           Ni    NNi   NNi   Ni          
                                         
       Ni   NNi   NNi   Ni               
        Ni    Ni   NNi   Ni    Ni        
                                         
               Ni    Ni    Ni            
           Ni    Ni    Ni                
                                         
                                         
                                         
                                         

Positions:
   0 Ni     1.247869    0.717358   10.073011    ( 0.0000,  0.0000,  0.0000)
   1 Ni     3.733490    0.718334   10.076614    ( 0.0000,  0.0000,  0.0000)
   2 Ni     6.219379    0.717537   10.073074    ( 0.0000,  0.0000,  0.0000)
   3 Ni     2.487598    2.873337   10.073122    ( 0.0000,  0.0000,  0.0000)
   4 Ni     4.979635    2.873143   10.073614    ( 0.0000,  0.0000,  0.0000)
   5 Ni     7.466881    2.877094   10.074290    ( 0.0000,  0.0000,  0.0000)
   6 Ni     3.733376    5.030738   10.072079    ( 0.0000,  0.0000,  0.0000)
   7 Ni     6.223059    5.029648   10.077743    ( 0.0000,  0.0000,  0.0000)
   8 Ni     8.711226    5.029600   10.078352    ( 0.0000,  0.0000,  0.0000)
   9 Ni    -0.000663    1.436674   12.037192    ( 0.0000,  0.0000,  0.0000)
  10 Ni     2.490092    1.441142   12.033026    ( 0.0000,  0.0000,  0.0000)
  11 Ni     4.978151    1.440116   12.031969    ( 0.0000,  0.0000,  0.0000)
  12 Ni     1.247662    3.591003   12.031060    ( 0.0000,  0.0000,  0.0000)
  13 Ni     3.732763    3.594269   12.026214    ( 0.0000,  0.0000,  0.0000)
  14 Ni     6.219689    3.591162   12.031757    ( 0.0000,  0.0000,  0.0000)
  15 Ni     2.493103    5.746093   12.032601    ( 0.0000,  0.0000,  0.0000)
  16 Ni     4.973927    5.745164   12.033810    ( 0.0000,  0.0000,  0.0000)
  17 Ni     7.467157    5.748269   12.029233    ( 0.0000,  0.0000,  0.0000)
  18 Ni    -0.000208    0.001415   13.989891    ( 0.0000,  0.0000,  0.0000)
  19 Ni     2.488630   -0.001919   13.988843    ( 0.0000,  0.0000,  0.0000)
  20 Ni     4.978610   -0.002112   13.988030    ( 0.0000,  0.0000,  0.0000)
  21 Ni     1.239978    2.155358   13.988910    ( 0.0000,  0.0000,  0.0000)
  22 Ni     3.732628    2.147795   14.000866    ( 0.0000,  0.0000,  0.0000)
  23 Ni     6.228500    2.154516   13.986272    ( 0.0000,  0.0000,  0.0000)
  24 Ni     2.477131    4.319205   13.984654    ( 0.0000,  0.0000,  0.0000)
  25 Ni     4.988297    4.319581   13.984734    ( 0.0000,  0.0000,  0.0000)
  26 Ni     7.467290    4.310586   13.990535    ( 0.0000,  0.0000,  0.0000)
  27 H      3.595260    3.234414   16.144714    ( 0.0000,  0.0000,  0.0000)
  28 H      3.872328    3.226998   16.769361    ( 0.0000,  0.0000,  0.0000)

Unit cell:
           periodic     x           y           z      points  spacing
  1. axis:    yes    7.467048    0.000000    0.000000    30     0.2156
  2. axis:    yes    3.733524    6.466653    0.000000    30     0.2156
  3. axis:    no     0.000000    0.000000   24.064546    98     0.2456

  Lengths:   7.467048   7.467048  24.064546
  Angles:   90.000000  90.000000  60.000000

Effective grid spacing dv^(1/3) = 0.2362

     iter     time        total  log10-change:
                         energy   eigst   dens
iter:   1 16:01:02  -205.723200   -0.73
iter:   2 16:01:05  -198.516351   -0.69  -1.48
iter:   3 16:01:08  -188.155050   -1.65  -1.92
iter:   4 16:01:10  -184.135645   -1.97  -1.81
iter:   5 16:01:17  -185.841314   -2.10  -1.91
iter:   6 16:01:20  -179.235767   -2.08  -1.83
iter:   7 16:01:22  -180.344428   -2.41  -2.30
iter:   8 16:01:25  -179.553698   -2.66  -2.34
iter:   9 16:01:28  -179.031232   -3.13  -2.32
iter:  10 16:01:31  -180.048020   -2.96  -2.51
iter:  11 16:01:34  -179.987814   -2.96  -2.24
iter:  12 16:01:36  -179.027271   -3.42  -2.25
iter:  13 16:01:39  -178.846730   -3.61  -2.46
iter:  14 16:01:42  -178.872825c  -3.51  -2.67
iter:  15 16:01:45  -178.863771c  -3.85  -2.62
iter:  16 16:01:51  -178.792174c  -3.99  -2.59
iter:  17 16:01:54  -178.963784c  -3.62  -2.69
iter:  18 16:01:57  -178.802499c  -3.62  -2.51
iter:  19 16:01:59  -178.702558   -4.23  -2.70
iter:  20 16:02:02  -178.670394c  -4.37  -2.93
iter:  21 16:02:05  -178.676849c  -4.57  -3.10
iter:  22 16:02:08  -178.668872c  -4.65  -3.12
iter:  23 16:02:11  -178.678369c  -5.07  -3.19
iter:  24 16:02:13  -178.670224c  -4.90  -3.02
iter:  25 16:02:16  -178.663758c  -4.98  -3.19
iter:  26 16:02:19  -178.665767c  -5.28  -3.24
iter:  27 16:02:22  -178.666490c  -5.18  -3.26
iter:  28 16:02:28  -178.666190c  -5.03  -3.21
iter:  29 16:02:31  -178.680737c  -4.97  -3.26
iter:  30 16:02:33  -178.666687c  -5.21  -3.05
iter:  31 16:02:36  -178.665436c  -4.96  -3.28
iter:  32 16:02:39  -178.661306c  -5.19  -3.34
iter:  33 16:02:42  -178.663949c  -5.34  -3.35
iter:  34 16:02:45  -178.662315c  -5.33  -3.35
iter:  35 16:02:47  -178.668623c  -5.30  -3.42
iter:  36 16:02:50  -178.660738c  -5.76  -3.18
iter:  37 16:02:53  -178.660360c  -5.47  -3.47
iter:  38 16:02:56  -178.664102c  -5.33  -3.45
iter:  39 16:03:02  -178.661675c  -5.46  -3.41
iter:  40 16:03:05  -178.660565c  -5.49  -3.44
iter:  41 16:03:08  -178.678938c  -5.12  -3.51
iter:  42 16:03:10  -178.660345c  -5.51  -3.10
iter:  43 16:03:13  -178.660147c  -5.92  -3.57
iter:  44 16:03:16  -178.659183c  -5.96  -3.63
iter:  45 16:03:19  -178.659528c  -6.11  -3.61
iter:  46 16:03:21  -178.659884c  -6.04  -3.64
iter:  47 16:03:24  -178.669840c  -5.45  -3.66
iter:  48 16:03:27  -178.659904c  -5.66  -3.20
iter:  49 16:03:30  -178.659062c  -5.93  -3.62
iter:  50 16:03:33  -178.659840c  -5.97  -3.68
iter:  51 16:03:39  -178.659306c  -6.14  -3.70
iter:  52 16:03:42  -178.658970c  -6.40  -3.74
iter:  53 16:03:44  -178.662610c  -5.94  -3.76
iter:  54 16:03:47  -178.659553c  -5.98  -3.43
iter:  55 16:03:50  -178.659550c  -6.25  -3.67
iter:  56 16:03:53  -178.659048c  -6.17  -3.75
iter:  57 16:03:56  -178.659042c  -6.09  -3.78
iter:  58 16:03:59  -178.659205c  -6.24  -3.80
iter:  59 16:04:03  -178.661157c  -6.22  -3.82
iter:  60 16:04:05  -178.659479c  -6.11  -3.52
iter:  61 16:04:08  -178.658813c  -6.38  -3.75
iter:  62 16:04:14  -178.658917c  -6.63  -3.86
iter:  63 16:04:17  -178.659026c  -6.39  -3.91
iter:  64 16:04:20  -178.658860c  -6.35  -3.90
iter:  65 16:04:23  -178.660041c  -6.35  -3.90
iter:  66 16:04:26  -178.659179c  -6.20  -3.63
iter:  67 16:04:28  -178.659029c  -6.31  -3.77
iter:  68 16:04:31  -178.658791c  -6.76  -3.92
iter:  69 16:04:34  -178.658669c  -6.74  -4.00
iter:  70 16:04:37  -178.658726c  -6.74  -4.02c
iter:  71 16:04:39  -178.659079c  -6.88  -4.03c
iter:  72 16:04:42  -178.659086c  -6.59  -3.84
iter:  73 16:04:45  -178.658657c  -6.43  -3.88
iter:  74 16:04:51  -178.658601c  -6.72  -4.01c
iter:  75 16:04:54  -178.658671c  -6.79  -4.09c
iter:  76 16:04:57  -178.658621c  -6.87  -4.10c
iter:  77 16:05:00  -178.658650c  -7.20  -4.12c
iter:  78 16:05:02  -178.658608c  -7.13  -4.03c
iter:  79 16:05:05  -178.658623c  -6.96  -4.06c
iter:  80 16:05:08  -178.658588c  -7.08  -4.15c
iter:  81 16:05:11  -178.658531c  -6.99  -4.17c
iter:  82 16:05:13  -178.658532c  -6.83  -4.17c
iter:  83 16:05:16  -178.658699c  -6.99  -4.19c
iter:  84 16:05:19  -178.658595c  -7.18  -4.03c
iter:  85 16:05:25  -178.658501c  -7.14  -4.16c
iter:  86 16:05:28  -178.658489c  -7.32  -4.25c
iter:  87 16:05:31  -178.658505c  -7.45c -4.28c

Converged after 87 iterations.

Dipole moment: (0.061527, -0.293229, 0.123933) |e|*Ang

Energy contributions relative to reference atoms: (reference = -1116960.938401)

Kinetic:       +287.849371
Potential:     -232.058990
External:        +0.000000
XC:            -237.364224
Entropy (-ST):   -3.857732
Local:           +4.844203
SIC:             +0.000000
--------------------------
Free energy:   -180.587371
Extrapolated:  -178.658505

 Band  Eigenvalues  Occupancy
    0    -65.38945    2.00000
    1    -65.37185    2.00000
    2    -65.37064    2.00000
    3    -65.36690    2.00000
    4    -65.36623    2.00000
    5    -65.36429    2.00000
    6    -65.35580    2.00000
    7    -65.35547    2.00000
    8    -65.34853    2.00000
    9    -65.05711    2.00000
   10    -65.05510    2.00000
   11    -65.05423    2.00000
   12    -65.05193    2.00000
   13    -65.05122    2.00000
   14    -65.05072    2.00000
   15    -65.04140    2.00000
   16    -65.04136    2.00000
   17    -65.03965    2.00000
   18    -65.03892    2.00000
   19    -64.95563    2.00000
   20    -64.95387    2.00000
   21    -64.95291    2.00000
   22    -64.95211    2.00000
   23    -64.95102    2.00000
   24    -64.95034    2.00000
   25    -64.92022    2.00000
   26    -64.91989    2.00000
   27    -64.82965    2.00000
   28    -64.82805    2.00000
   29    -64.82712    2.00000
   30    -64.82409    2.00000
   31    -64.82334    2.00000
   32    -64.82289    2.00000
   33    -64.82011    2.00000
   34    -64.81917    2.00000
   35    -64.81873    2.00000
   36    -64.81806    2.00000
   37    -64.81756    2.00000
   38    -64.81743    2.00000
   39    -64.81287    2.00000
   40    -64.80985    2.00000
   41    -64.80874    2.00000
   42    -64.80832    2.00000
   43    -64.80757    2.00000
   44    -64.80667    2.00000
   45    -64.80097    2.00000
   46    -64.79822    2.00000
   47    -64.77261    2.00000
   48    -64.75809    2.00000
   49    -64.75614    2.00000
   50    -64.75512    2.00000
   51    -64.75399    2.00000
   52    -64.75183    2.00000
   53    -64.75146    2.00000
   54    -64.74927    2.00000
   55    -64.74871    2.00000
   56    -64.74817    2.00000
   57    -64.74653    2.00000
   58    -64.74536    2.00000
   59    -64.74439    2.00000
   60    -64.74197    2.00000
   61    -64.74104    2.00000
   62    -64.74084    2.00000
   63    -64.73989    2.00000
   64    -64.73597    2.00000
   65    -64.73572    2.00000
   66    -64.73252    2.00000
   67    -64.73108    2.00000
   68    -64.73029    2.00000
   69    -64.72934    2.00000
   70    -64.72893    2.00000
   71    -64.72760    2.00000
   72    -64.72737    2.00000
   73    -64.72642    2.00000
   74    -64.72550    2.00000
   75    -64.72204    2.00000
   76    -64.71716    2.00000
   77    -64.69786    2.00000
   78    -64.69781    2.00000
   79    -64.69532    2.00000
   80    -64.69458    2.00000
   81     -9.87301    2.00000
   82     -8.11961    2.00000
   83     -7.54242    2.00000
   84     -6.79555    2.00000
   85     -6.79277    2.00000
   86     -6.78961    2.00000
   87     -6.78623    2.00000
   88     -6.78299    2.00000
   89     -6.76695    2.00000
   90     -6.18092    2.00000
   91     -5.68024    2.00000
   92     -5.67864    2.00000
   93     -5.67835    2.00000
   94     -5.67540    2.00000
   95     -5.67456    2.00000
   96     -5.65695    2.00000
   97     -4.96503    2.00000
   98     -4.96422    2.00000
   99     -4.96104    2.00000
  100     -4.96038    2.00000
  101     -4.95577    2.00000
  102     -4.95468    2.00000
  103     -4.84243    2.00000
  104     -4.83479    2.00000
  105     -4.81350    2.00000
  106     -4.81016    2.00000
  107     -4.80799    2.00000
  108     -4.80701    2.00000
  109     -4.58349    2.00000
  110     -4.58184    2.00000
  111     -4.58096    2.00000
  112     -4.57547    2.00000
  113     -4.57093    2.00000
  114     -4.56359    2.00000
  115     -4.47418    2.00000
  116     -4.46818    2.00000
  117     -4.46689    2.00000
  118     -4.46614    2.00000
  119     -4.15792    2.00000
  120     -4.15721    2.00000
  121     -4.14954    2.00000
  122     -4.14917    2.00000
  123     -4.14689    2.00000
  124     -4.14329    2.00000
  125     -3.64930    2.00000
  126     -3.64601    2.00000
  127     -3.58620    2.00000
  128     -3.58382    2.00000
  129     -3.58049    2.00000
  130     -3.57999    2.00000
  131     -3.57872    2.00000
  132     -3.56693    2.00000
  133     -3.46123    2.00000
  134     -3.44964    2.00000
  135     -3.37890    2.00000
  136     -3.37881    2.00000
  137     -3.28086    2.00000
  138     -3.27483    2.00000
  139     -3.27192    2.00000
  140     -3.26856    2.00000
  141     -3.26807    2.00000
  142     -3.26447    2.00000
  143     -3.26361    2.00000
  144     -3.26252    2.00000
  145     -3.26085    2.00000
  146     -3.25815    2.00000
  147     -3.25801    2.00000
  148     -3.25397    2.00000
  149     -3.22486    2.00000
  150     -3.22067    2.00000
  151     -3.21035    2.00000
  152     -3.20953    2.00000
  153     -3.20232    2.00000
  154     -3.19851    2.00000
  155     -3.19821    2.00000
  156     -3.19711    2.00000
  157     -3.19399    2.00000
  158     -3.18335    2.00000
  159     -2.99626    2.00000
  160     -2.99535    2.00000
  161     -2.98591    2.00000
  162     -2.98291    2.00000
  163     -2.97834    2.00000
  164     -2.97540    2.00000
  165     -2.96862    2.00000
  166     -2.95233    2.00000
  167     -2.66220    1.99994
  168     -2.66087    1.99994
  169     -2.65580    1.99994
  170     -2.65401    1.99994
  171     -2.64925    1.99994
  172     -2.64433    1.99993
  173     -2.36807    1.99894
  174     -2.36729    1.99894
  175     -2.36583    1.99892
  176     -2.36217    1.99888
  177     -2.36101    1.99887
  178     -2.35782    1.99883
  179     -2.32461    1.99837
  180     -2.32390    1.99836
  181     -2.28688    1.99762
  182     -2.28477    1.99757
  183     -2.28375    1.99755
  184     -2.28211    1.99751
  185     -2.23095    1.99584
  186     -2.05437    1.97594
  187     -2.05324    1.97567
  188     -2.04859    1.97453
  189     -2.04788    1.97435
  190     -2.04512    1.97364
  191     -2.03176    1.96993
  192     -1.96419    1.94175
  193     -1.96382    1.94154
  194     -1.93264    1.92099
  195     -1.92417    1.91431
  196     -1.92327    1.91357
  197     -1.92142    1.91203
  198     -1.92129    1.91191
  199     -1.92059    1.91133
  200     -1.78431    1.69311
  201     -1.78108    1.68462
  202     -1.77579    1.67031
  203     -1.77532    1.66901
  204     -1.77081    1.65637
  205     -1.76381    1.63597
  206     -1.76237    1.63168
  207     -1.76121    1.62818
  208     -1.75631    1.61311
  209     -1.75510    1.60933
  210     -1.71304    1.46019
  211     -1.71116    1.45274
  212     -1.69226    1.37450
  213     -1.68992    1.36439
  214     -1.68819    1.35685
  215     -1.68684    1.35096
  216     -1.68337    1.33567
  217     -1.68225    1.33069
  218     -1.58092    0.83838
  219     -1.58065    0.83706
  220     -1.50952    0.52228
  221     -1.50747    0.51439
  222     -1.50712    0.51304
  223     -1.50540    0.50650
  224     -1.50513    0.50550
  225     -1.50397    0.50111
  226     -1.50365    0.49994
  227     -1.50189    0.49336
  228     -1.48417    0.43047
  229     -1.47905    0.41344
  230     -1.47715    0.40723
  231     -1.44399    0.31012
  232     -0.93130    0.00218
  233      1.14904    0.00000
  234      1.15616    0.00000
  235      1.21655    0.00000
  236      1.21853    0.00000
  237      1.22505    0.00000
  238      1.26647    0.00000
  239      2.94249    0.00000
  240      3.25781    0.00000
  241      3.65700    0.00000
  242      3.86725    0.00000
  243      3.88804    0.00000
  244      3.90477    0.00000
  245      3.90492    0.00000
  246      3.97869    0.00000
  247      3.98729    0.00000
  248      4.16924    0.00000
  249      4.17088    0.00000
  250      4.17785    0.00000
  251      4.33917    0.00000
  252      4.37760    0.00000
  253      4.38563    0.00000
  254      4.73573    0.00000
  255      4.86282    0.00000
  256      4.86729    0.00000
  257      5.26566    0.00000
  258      5.79490    0.00000
  259      5.93013    0.00000
  260      6.17597    0.00000
  261      6.33099    0.00000
  262      6.33358    0.00000
  263      6.36656    0.00000
  264      6.49137    0.00000

Fermi level: -1.61353

Gap: 0.101 eV
Transition (v -> c):
  (s=0, k=0, n=217, [0.00, 0.00, 0.00]) -> (s=0, k=0, n=218, [0.00, 0.00, 0.00])
No difference between direct/indirect transitions

Forces in eV/Ang:
  0 Ni    0.00550   -0.00202    0.18709
  1 Ni   -0.00276    0.00997    0.18434
  2 Ni   -0.00165   -0.00297    0.17645
  3 Ni   -0.01626   -0.01248    0.15417
  4 Ni    0.01425   -0.01142    0.15632
  5 Ni    0.00143   -0.00285    0.18367
  6 Ni   -0.00056    0.02251    0.14360
  7 Ni   -0.01111    0.00114    0.18942
  8 Ni    0.01276   -0.00196    0.18931
  9 Ni    0.01089   -0.01093   -0.03189
 10 Ni    0.00874    0.00504    0.01472
 11 Ni   -0.01824    0.00923    0.01611
 12 Ni   -0.01386   -0.01597   -0.01466
 13 Ni    0.00153   -0.02691    0.03123
 14 Ni    0.00983   -0.00824   -0.01417
 15 Ni    0.00679    0.02514   -0.00992
 16 Ni   -0.00316    0.02968   -0.01403
 17 Ni   -0.00281    0.00458   -0.00775
 18 Ni   -0.00026   -0.02105   -0.16057
 19 Ni    0.00001    0.02297   -0.19068
 20 Ni    0.00016    0.02435   -0.18931
 21 Ni    0.03086    0.01181   -0.17914
 22 Ni    0.00140   -0.01596   -0.21615
 23 Ni   -0.02907    0.01040   -0.17949
 24 Ni   -0.01532    0.00232   -0.22898
 25 Ni    0.00936   -0.00052   -0.22207
 26 Ni   -0.00090   -0.01539   -0.17467
 27 H    -1.33164    0.04545   -2.98646
 28 H     1.33594   -0.07577    3.14220

System changes: positions 

Initializing position-dependent things.

Density initialized from wave functions
                                         
                                         
                                         
                                         
                                         
                   H                     
                  H                      
                                         
                Ni    Ni    Ni           
           Ni    NNi   NNi   Ni          
                                         
       Ni   NNi   NNi   Ni               
        Ni    Ni   NNi   Ni    Ni        
                                         
               Ni    Ni    Ni            
           Ni    Ni    Ni                
                                         
                                         
                                         
                                         

Positions:
   0 Ni     1.248447    0.717164   10.086122    ( 0.0000,  0.0000,  0.0000)
   1 Ni     3.733438    0.718447   10.090234    ( 0.0000,  0.0000,  0.0000)
   2 Ni     6.218892    0.717369   10.086049    ( 0.0000,  0.0000,  0.0000)
   3 Ni     2.487191    2.873042   10.085809    ( 0.0000,  0.0000,  0.0000)
   4 Ni     4.980049    2.872846   10.086410    ( 0.0000,  0.0000,  0.0000)
   5 Ni     7.466869    2.877488   10.087544    ( 0.0000,  0.0000,  0.0000)
   6 Ni     3.733360    5.031194   10.084469    ( 0.0000,  0.0000,  0.0000)
   7 Ni     6.222989    5.029681   10.091588    ( 0.0000,  0.0000,  0.0000)
   8 Ni     8.711333    5.029581   10.092276    ( 0.0000,  0.0000,  0.0000)
   9 Ni    -0.000621    1.436474   12.037499    ( 0.0000,  0.0000,  0.0000)
  10 Ni     2.490377    1.441795   12.033313    ( 0.0000,  0.0000,  0.0000)
  11 Ni     4.977927    1.440678   12.032109    ( 0.0000,  0.0000,  0.0000)
  12 Ni     1.247937    3.590546   12.030673    ( 0.0000,  0.0000,  0.0000)
  13 Ni     3.732675    3.594135   12.025713    ( 0.0000,  0.0000,  0.0000)
  14 Ni     6.219398    3.590845   12.031486    ( 0.0000,  0.0000,  0.0000)
  15 Ni     2.493784    5.746155   12.032504    ( 0.0000,  0.0000,  0.0000)
  16 Ni     4.973308    5.745135   12.033848    ( 0.0000,  0.0000,  0.0000)
  17 Ni     7.467120    5.748374   12.028691    ( 0.0000,  0.0000,  0.0000)
  18 Ni    -0.000229    0.001381   13.976858    ( 0.0000,  0.0000,  0.0000)
  19 Ni     2.488582   -0.001898   13.975243    ( 0.0000,  0.0000,  0.0000)
  20 Ni     4.978676   -0.002093   13.974326    ( 0.0000,  0.0000,  0.0000)
  21 Ni     1.239726    2.155470   13.975551    ( 0.0000,  0.0000,  0.0000)
  22 Ni     3.732498    2.146563   13.989225    ( 0.0000,  0.0000,  0.0000)
  23 Ni     6.228997    2.154498   13.972499    ( 0.0000,  0.0000,  0.0000)
  24 Ni     2.475266    4.320326   13.970305    ( 0.0000,  0.0000,  0.0000)
  25 Ni     4.989860    4.320745   13.970450    ( 0.0000,  0.0000,  0.0000)
  26 Ni     7.467300    4.310316   13.977395    ( 0.0000,  0.0000,  0.0000)
  27 H      3.584753    3.235223   16.118458    ( 0.0000,  0.0000,  0.0000)
  28 H      3.882939    3.225037   16.797417    ( 0.0000,  0.0000,  0.0000)

Unit cell:
           periodic     x           y           z      points  spacing
  1. axis:    yes    7.467048    0.000000    0.000000    30     0.2156
  2. axis:    yes    3.733524    6.466653    0.000000    30     0.2156
  3. axis:    no     0.000000    0.000000   24.064546    98     0.2456

  Lengths:   7.467048   7.467048  24.064546
  Angles:   90.000000  90.000000  60.000000

Effective grid spacing dv^(1/3) = 0.2362

     iter     time        total  log10-change:
                         energy   eigst   dens
iter:   1 16:11:43  -181.932027   -1.81
iter:   2 16:11:46  -191.403005   -1.56  -1.93
iter:   3 16:11:48  -208.722083   -1.64  -1.81
iter:   4 16:11:51  -184.047999   -2.19  -1.66
iter:   5 16:11:54  -182.880891   -2.07  -1.96
iter:   6 16:12:01  -181.439887   -3.17  -2.07
iter:   7 16:12:03  -179.697840   -3.37  -2.15
iter:   8 16:12:06  -179.053206   -2.99  -2.33
iter:   9 16:12:09  -179.000580   -3.87  -2.61
iter:  10 16:12:12  -179.464090   -3.72  -2.71
iter:  11 16:12:15  -178.970987   -3.21  -2.38
iter:  12 16:12:17  -178.888398   -3.89  -2.82
iter:  13 16:12:20  -178.904964c  -3.98  -2.96
iter:  14 16:12:23  -178.875874c  -4.53  -2.90
iter:  15 16:12:26  -178.858300c  -5.16  -2.98
iter:  16 16:12:29  -178.864981c  -4.73  -3.15
iter:  17 16:12:35  -178.863965c  -4.75  -3.15
iter:  18 16:12:38  -178.855106c  -5.18  -3.03
iter:  19 16:12:41  -178.852120c  -4.80  -3.35
iter:  20 16:12:44  -178.847084c  -5.39  -3.35
iter:  21 16:12:46  -178.853315c  -5.67  -3.46
iter:  22 16:12:49  -178.852785c  -5.17  -3.27
iter:  23 16:12:52  -178.847786c  -5.24  -3.37
iter:  24 16:12:55  -178.847989c  -5.64  -3.58
iter:  25 16:12:58  -178.849926c  -5.56  -3.58
iter:  26 16:13:01  -178.849063c  -5.96  -3.73
iter:  27 16:13:03  -178.846717c  -5.88  -3.82
iter:  28 16:13:06  -178.848398c  -6.34  -3.89
iter:  29 16:13:13  -178.848151c  -6.36  -3.73
iter:  30 16:13:15  -178.847937c  -6.10  -3.93
iter:  31 16:13:18  -178.847273c  -6.11  -3.91
iter:  32 16:13:21  -178.847491c  -6.20  -3.89
iter:  33 16:13:24  -178.848633c  -6.35  -4.03c
iter:  34 16:13:27  -178.848166c  -6.29  -4.01c
iter:  35 16:13:29  -178.847256c  -6.77  -3.70
iter:  36 16:13:32  -178.847548c  -6.63  -4.20c
iter:  37 16:13:35  -178.847826c  -6.93  -4.15c
iter:  38 16:13:39  -178.847563c  -6.81  -4.12c
iter:  39 16:13:41  -178.846983c  -6.83  -4.21c
iter:  40 16:13:48  -178.849355c  -6.30  -4.24c
iter:  41 16:13:51  -178.847801c  -6.62  -3.68
iter:  42 16:13:54  -178.847607c  -6.82  -4.28c
iter:  43 16:13:56  -178.847355c  -6.94  -4.25c
iter:  44 16:13:59  -178.847475c  -7.04  -4.27c
iter:  45 16:14:02  -178.847702c  -7.57c -4.35c

Converged after 45 iterations.

Dipole moment: (0.139171, -0.298452, 0.122663) |e|*Ang

Energy contributions relative to reference atoms: (reference = -1116960.938401)

Kinetic:       +291.194322
Potential:     -234.748472
External:        +0.000000
XC:            -238.190436
Entropy (-ST):   -3.781993
Local:           +4.787881
SIC:             +0.000000
--------------------------
Free energy:   -180.738698
[...]
No difference between direct/indirect transitions

Forces in eV/Ang:
  0 Ni   -0.01348    0.01732   -0.02106
  1 Ni   -0.02403    0.01233    0.00422
  2 Ni    0.02924   -0.02479   -0.00113
  3 Ni    0.02958   -0.01316   -0.01219
  4 Ni   -0.01098   -0.00121   -0.01504
  5 Ni   -0.02362    0.01089   -0.00479
  6 Ni   -0.02114    0.01390    0.00866
  7 Ni    0.01728   -0.02329   -0.02169
  8 Ni   -0.02381    0.00675   -0.02652
  9 Ni    0.00711    0.00383    0.02521
 10 Ni   -0.00674   -0.00393   -0.01020
 11 Ni    0.01918   -0.00700   -0.01625
 12 Ni    0.04029   -0.00254   -0.01668
 13 Ni    0.00688    0.02087    0.01732
 14 Ni   -0.00225   -0.01091   -0.01060
 15 Ni   -0.00010   -0.00121   -0.00768
 16 Ni    0.02626    0.00244   -0.01803
 17 Ni    0.00388    0.00827    0.01080
 18 Ni    0.00460    0.00366    0.00827
 19 Ni   -0.00098    0.00169    0.00852
 20 Ni   -0.00266    0.00260    0.01500
 21 Ni   -0.01380    0.00484    0.01941
 22 Ni   -0.00339    0.00319    0.00174
 23 Ni   -0.01573   -0.00930    0.00192
 24 Ni   -0.01073    0.00719    0.00792
 25 Ni   -0.01833    0.01911    0.02773
 26 Ni    0.00673    0.00548   -0.00333
 27 H     0.00060   -0.00435   -0.01694
 28 H     0.00398   -0.04038    0.07300

System changes: positions 

Initializing position-dependent things.

Density initialized from wave functions
                                         
                                         
                                         
                                         
                                         
                  H                      
                  H                      
                                         
                Ni    Ni    Ni           
            Ni   NNi   Ni    Ni          
                   Ni  Ni                
       Ni   NNi     Ni   Ni              
        Ni    Ni   NNi    Ni    Ni       
                     Ni                  
               Ni          Ni            
           Ni   Ni     Ni                
                                         
                                         
                                         
                                         

Positions:
   0 Ni     1.243632    0.894838   10.082544    ( 0.0000,  0.0000,  0.0000)
   1 Ni     3.630058    0.645306   10.040318    ( 0.0000,  0.0000,  0.0000)
   2 Ni     6.344392    0.678943   10.040660    ( 0.0000,  0.0000,  0.0000)
   3 Ni     2.640927    2.816966   10.073219    ( 0.0000,  0.0000,  0.0000)
   4 Ni     4.987484    3.012552   10.023730    ( 0.0000,  0.0000,  0.0000)
   5 Ni     7.373690    2.830517   10.016584    ( 0.0000,  0.0000,  0.0000)
   6 Ni     3.639791    4.959998   10.042621    ( 0.0000,  0.0000,  0.0000)
   7 Ni     6.315512    4.999530   10.031072    ( 0.0000,  0.0000,  0.0000)
   8 Ni     8.700546    5.173445   10.066317    ( 0.0000,  0.0000,  0.0000)
   9 Ni    -0.011724    1.447795   12.215232    ( 0.0000,  0.0000,  0.0000)
  10 Ni     2.526922    1.453161   12.053489    ( 0.0000,  0.0000,  0.0000)
  11 Ni     4.963591    1.465312   11.781829    ( 0.0000,  0.0000,  0.0000)
  12 Ni     1.243913    3.589347   11.784649    ( 0.0000,  0.0000,  0.0000)
  13 Ni     3.742551    3.602519   12.244023    ( 0.0000,  0.0000,  0.0000)
  14 Ni     6.235504    3.613152   11.978605    ( 0.0000,  0.0000,  0.0000)
  15 Ni     2.501804    5.766703   11.992776    ( 0.0000,  0.0000,  0.0000)
  16 Ni     4.973488    5.772937   11.799485    ( 0.0000,  0.0000,  0.0000)
  17 Ni     7.464038    5.741609   12.208169    ( 0.0000,  0.0000,  0.0000)
  18 Ni     0.002342   -0.118912   13.972858    ( 0.0000,  0.0000,  0.0000)
  19 Ni     2.387919    0.068586   13.975492    ( 0.0000,  0.0000,  0.0000)
  20 Ni     5.080097    0.126476   13.913557    ( 0.0000,  0.0000,  0.0000)
  21 Ni     1.328007    2.242003   13.947657    ( 0.0000,  0.0000,  0.0000)
  22 Ni     3.710157    2.105483   14.080423    ( 0.0000,  0.0000,  0.0000)
  23 Ni     6.082351    2.240902   13.933917    ( 0.0000,  0.0000,  0.0000)
  24 Ni     2.321521    4.394091   13.935651    ( 0.0000,  0.0000,  0.0000)
  25 Ni     5.111808    4.419046   13.942449    ( 0.0000,  0.0000,  0.0000)
  26 Ni     7.454951    4.210869   13.993111    ( 0.0000,  0.0000,  0.0000)
  27 H      3.690270    3.107144   16.234149    ( 0.0000,  0.0000,  0.0000)
  28 H      3.781238    2.797093   16.928199    ( 0.0000,  0.0000,  0.0000)

Unit cell:
           periodic     x           y           z      points  spacing
  1. axis:    yes    7.467048    0.000000    0.000000    30     0.2156
  2. axis:    yes    3.733524    6.466653    0.000000    30     0.2156
  3. axis:    no     0.000000    0.000000   24.064546    98     0.2456

  Lengths:   7.467048   7.467048  24.064546
  Angles:   90.000000  90.000000  60.000000

Effective grid spacing dv^(1/3) = 0.2362

     iter     time        total  log10-change:
                         energy   eigst   dens
iter:   1 21:53:41  -179.656207   -3.71
iter:   2 21:53:44  -179.863367   -3.51  -3.12
iter:   3 21:53:46  -179.861426c  -3.74  -2.69
iter:   4 21:53:49  -179.621869   -4.29  -2.62
iter:   5 21:53:52  -179.619929   -5.37  -3.72
iter:   6 21:53:55  -179.619640c  -6.21  -3.88
iter:   7 21:53:58  -179.619558c  -6.43  -3.98
iter:   8 21:54:01  -179.619466c  -6.20  -4.03c
iter:   9 21:54:03  -179.620115c  -6.01  -4.04c
iter:  10 21:54:06  -179.619133c  -6.14  -3.82
iter:  11 21:54:12  -179.619044c  -7.26  -4.01c
iter:  12 21:54:15  -179.618919c  -7.32  -4.16c
iter:  13 21:54:18  -179.618861c  -7.46c -4.26c

Converged after 13 iterations.

Dipole moment: (1.168808, -1.322935, 0.113042) |e|*Ang

Energy contributions relative to reference atoms: (reference = -1116960.938401)

Kinetic:       +285.267292
Potential:     -230.376017
External:        +0.000000
XC:            -237.788666
Entropy (-ST):   -3.095592
Local:           +4.826326
SIC:             +0.000000
--------------------------
Free energy:   -181.166657
Extrapolated:  -179.618861

 Band  Eigenvalues  Occupancy
    0    -65.53486    2.00000
    1    -65.50823    2.00000
    2    -65.50024    2.00000
    3    -65.42190    2.00000
    4    -65.41698    2.00000
    5    -65.40864    2.00000
    6    -65.40271    2.00000
    7    -65.39912    2.00000
    8    -65.38907    2.00000
    9    -65.21057    2.00000
   10    -65.20856    2.00000
   11    -65.20317    2.00000
   12    -65.19917    2.00000
   13    -65.19567    2.00000
   14    -65.19251    2.00000
   15    -65.18275    2.00000
   16    -65.17385    2.00000
   17    -65.16419    2.00000
   18    -65.16301    2.00000
   19    -65.15850    2.00000
   20    -65.15289    2.00000
   21    -65.14318    2.00000
   22    -65.13459    2.00000
   23    -65.13118    2.00000
   24    -65.12834    2.00000
   25    -65.12099    2.00000
   26    -65.11782    2.00000
   27    -65.10509    2.00000
   28    -65.10198    2.00000
   29    -65.09492    2.00000
   30    -65.09431    2.00000
   31    -65.09113    2.00000
   32    -65.08820    2.00000
   33    -65.08696    2.00000
   34    -65.08537    2.00000
   35    -65.07826    2.00000
   36    -65.07717    2.00000
   37    -65.07183    2.00000
   38    -65.06591    2.00000
   39    -65.05968    2.00000
   40    -65.05712    2.00000
   41    -65.05477    2.00000
   42    -65.04907    2.00000
   43    -65.04137    2.00000
   44    -65.03655    2.00000
   45    -65.03350    2.00000
   46    -65.02534    2.00000
   47    -65.00938    2.00000
   48    -65.00369    2.00000
   49    -64.99889    2.00000
   50    -64.99593    2.00000
   51    -64.99314    2.00000
   52    -64.99140    2.00000
   53    -64.98246    2.00000
   54    -64.98140    2.00000
   55    -64.97946    2.00000
   56    -64.97484    2.00000
   57    -64.96502    2.00000
   58    -64.95340    2.00000
   59    -64.94973    2.00000
   60    -64.94575    2.00000
   61    -64.92991    2.00000
   62    -64.91360    2.00000
   63    -64.81142    2.00000
   64    -64.80528    2.00000
   65    -64.80252    2.00000
   66    -64.79739    2.00000
   67    -64.79153    2.00000
   68    -64.79031    2.00000
   69    -64.78703    2.00000
   70    -64.78605    2.00000
   71    -64.78012    2.00000
   72    -64.77146    2.00000
   73    -64.76939    2.00000
   74    -64.76705    2.00000
   75    -64.76397    2.00000
   76    -64.76214    2.00000
   77    -64.75958    2.00000
   78    -64.75788    2.00000
   79    -64.75667    2.00000
   80    -64.73217    2.00000
   81     -9.98363    2.00000
   82     -7.92951    2.00000
   83     -7.37087    2.00000
   84     -7.02589    2.00000
   85     -7.00186    2.00000
   86     -6.86173    2.00000
   87     -6.85734    2.00000
   88     -6.84341    2.00000
   89     -6.82730    2.00000
   90     -6.26692    2.00000
   91     -5.86682    2.00000
   92     -5.85504    2.00000
   93     -5.85090    2.00000
   94     -5.84277    2.00000
   95     -5.83792    2.00000
   96     -5.83663    2.00000
   97     -5.15972    2.00000
   98     -5.15590    2.00000
   99     -5.11275    2.00000
  100     -5.07068    2.00000
  101     -5.06284    2.00000
  102     -5.00192    2.00000
  103     -4.99357    2.00000
  104     -4.97900    2.00000
  105     -4.97684    2.00000
  106     -4.96821    2.00000
  107     -4.95680    2.00000
  108     -4.93871    2.00000
  109     -4.93348    2.00000
  110     -4.92084    2.00000
  111     -4.80821    2.00000
  112     -4.79197    2.00000
  113     -4.78307    2.00000
  114     -4.76507    2.00000
  115     -4.61874    2.00000
  116     -4.59495    2.00000
  117     -4.55047    2.00000
  118     -4.52929    2.00000
  119     -4.38699    2.00000
  120     -4.37711    2.00000
  121     -4.31537    2.00000
  122     -4.31013    2.00000
  123     -4.29650    2.00000
  124     -4.29018    2.00000
  125     -4.00567    2.00000
  126     -3.98499    2.00000
  127     -3.93314    2.00000
  128     -3.91812    2.00000
  129     -3.73017    2.00000
  130     -3.70132    2.00000
  131     -3.68707    2.00000
  132     -3.67373    2.00000
  133     -3.66875    2.00000
  134     -3.65652    2.00000
  135     -3.64970    2.00000
  136     -3.63271    2.00000
  137     -3.60105    2.00000
  138     -3.58204    2.00000
  139     -3.57670    2.00000
  140     -3.56393    2.00000
  141     -3.55101    2.00000
  142     -3.53503    2.00000
  143     -3.52055    2.00000
  144     -3.50833    2.00000
  145     -3.49746    2.00000
  146     -3.48173    2.00000
  147     -3.47516    2.00000
  148     -3.44059    2.00000
  149     -3.41622    2.00000
  150     -3.37591    2.00000
  151     -3.35700    2.00000
  152     -3.34235    2.00000
  153     -3.33230    2.00000
  154     -3.30768    2.00000
  155     -3.30063    2.00000
  156     -3.29116    2.00000
  157     -3.26745    2.00000
  158     -3.24478    2.00000
  159     -3.19758    2.00000
  160     -3.16513    2.00000
  161     -3.11270    2.00000
  162     -3.10129    2.00000
  163     -3.08821    2.00000
  164     -3.08278    2.00000
  165     -3.07536    2.00000
  166     -3.01305    2.00000
  167     -2.99095    1.99999
  168     -2.97366    1.99999
  169     -2.73764    1.99993
  170     -2.72787    1.99993
  171     -2.72684    1.99993
  172     -2.72204    1.99992
  173     -2.63127    1.99981
  174     -2.62599    1.99980
  175     -2.55889    1.99961
  176     -2.55234    1.99958
  177     -2.53151    1.99948
  178     -2.52697    1.99946
  179     -2.48795    1.99920
  180     -2.45156    1.99885
  181     -2.40403    1.99816
  182     -2.39310    1.99794
  183     -2.38748    1.99783
  184     -2.37909    1.99764
  185     -2.35306    1.99693
  186     -2.34941    1.99682
  187     -2.30265    1.99493
  188     -2.29633    1.99460
  189     -2.28849    1.99416
  190     -2.24116    1.99064
  191     -2.22711    1.98924
  192     -2.14017    1.97452
  193     -2.13619    1.97350
  194     -2.12083    1.96917
  195     -2.10896    1.96535
  196     -2.09713    1.96108
  197     -2.08843    1.95762
  198     -2.08096    1.95441
  199     -2.06328    1.94582
  200     -2.03274    1.92718
  201     -2.03076    1.92578
  202     -2.02455    1.92121
  203     -2.01720    1.91545
  204     -2.01155    1.91076
  205     -1.88982    1.72747
  206     -1.87960    1.70250
  207     -1.87372    1.68729
  208     -1.86454    1.66232
  209     -1.86076    1.65157
  210     -1.85455    1.63332
  211     -1.84678    1.60950
  212     -1.77903    1.35342
  213     -1.77611    1.34058
  214     -1.76598    1.29508
  215     -1.75911    1.26338
  216     -1.73324    1.13948
  217     -1.71874    1.06778
  218     -1.67323    0.84168
  219     -1.65941    0.77515
  220     -1.59211    0.48815
  221     -1.58670    0.46846
  222     -1.57935    0.44262
  223     -1.57338    0.42237
  224     -1.56194    0.38552
  225     -1.55735    0.37143
  226     -1.55185    0.35509
  227     -1.51865    0.26823
  228     -1.50473    0.23750
  229     -1.49545    0.21877
  230     -1.48000    0.19043
  231     -1.45715    0.15453
  232     -0.79147    0.00022
  233      1.01913    0.00000
  234      1.04564    0.00000
  235      1.10151    0.00000
  236      1.11279    0.00000
  237      1.12369    0.00000
  238      1.14377    0.00000
  239      2.93211    0.00000
  240      3.27635    0.00000
  241      3.55098    0.00000
  242      3.57348    0.00000
  243      3.66465    0.00000
  244      3.69368    0.00000
  245      3.72248    0.00000
  246      3.75125    0.00000
  247      3.80464    0.00000
  248      3.85877    0.00000
  249      3.90952    0.00000
  250      4.15926    0.00000
  251      4.23924    0.00000
  252      4.27078    0.00000
  253      4.32845    0.00000
  254      4.80995    0.00000
  255      5.01729    0.00000
  256      5.17406    0.00000
  257      5.31722    0.00000
  258      5.70543    0.00000
  259      5.82958    0.00000
  260      6.07447    0.00000
  261      6.19220    0.00000
  262      6.28630    0.00000
  263      6.31077    0.00000
  264      6.33644    0.00000

Fermi level: -1.70516

Gap: 0.046 eV
Transition (v -> c):
  (s=0, k=0, n=217, [0.00, 0.00, 0.00]) -> (s=0, k=0, n=218, [0.00, 0.00, 0.00])
No difference between direct/indirect transitions

Forces in eV/Ang:
  0 Ni    0.00288    0.02735   -0.02179
  1 Ni   -0.03053    0.00255    0.00586
  2 Ni    0.01815   -0.01574   -0.00020
  3 Ni    0.01958   -0.00530   -0.01225
  4 Ni    0.00589    0.00581   -0.01422
  5 Ni   -0.03094    0.00549   -0.00353
  6 Ni   -0.02532    0.00117    0.01284
  7 Ni    0.01195   -0.02001   -0.01835
  8 Ni   -0.01337    0.01025   -0.02774
  9 Ni    0.01113    0.00773    0.01352
 10 Ni   -0.01263   -0.00656   -0.00530
 11 Ni    0.02025   -0.00874   -0.01877
 12 Ni    0.03446   -0.00058   -0.01351
 13 Ni    0.00595    0.01414   -0.00167
 14 Ni   -0.00553   -0.01397   -0.01199
 15 Ni   -0.00163   -0.00625   -0.00872
 16 Ni    0.02362   -0.00200   -0.01587
 17 Ni    0.00249    0.00483   -0.00099
 18 Ni    0.00784   -0.00246    0.01227
 19 Ni   -0.01072    0.00436    0.01071
 20 Ni    0.00608    0.01326    0.02601
 21 Ni   -0.00222    0.01215    0.02781
 22 Ni   -0.00304    0.00028    0.00447
 23 Ni   -0.02634   -0.00004    0.00925
 24 Ni   -0.02209    0.00161    0.02193
 25 Ni   -0.00091    0.02213    0.04439
 26 Ni    0.00808   -0.00602    0.00124
 27 H     0.00716   -0.02649    0.02317
 28 H    -0.00277   -0.02802    0.03554

Timing:                                      incl.     excl.
-------------------------------------------------------------------
Density initialized from wave functions:    25.579    25.578   0.1% |
 Symmetrize density:                         0.001     0.001   0.0% |
Forces:                                    104.380   104.380   0.4% |
Hamiltonian:                                79.820     0.105   0.0% |
 Atomic:                                    46.638     0.118   0.0% |
  XC Correction:                            46.520    46.520   0.2% |
 Calculate atomic Hamiltonians:             18.384    18.384   0.1% |
 Communicate:                                0.000     0.000   0.0% |
 Initialize Hamiltonian:                     0.000     0.000   0.0% |
 Poisson:                                    0.153     0.153   0.0% |
 XC 3D grid:                                14.540    14.540   0.1% |
LCAO initialization:                        11.865     0.035   0.0% |
 LCAO eigensolver:                           1.167     0.000   0.0% |
  Calculate projections:                     0.001     0.001   0.0% |
  DenseAtomicCorrection:                     0.003     0.003   0.0% |
  Distribute overlap matrix:                 0.000     0.000   0.0% |
  Orbital Layouts:                           0.015     0.015   0.0% |
  Potential matrix:                          1.148     1.148   0.0% |
 LCAO to grid:                              10.185    10.185   0.0% |
 Set positions (LCAO WFS):                   0.477     0.093   0.0% |
  Basic WFS set positions:                   0.000     0.000   0.0% |
  Basis functions set positions:             0.000     0.000   0.0% |
  P tci:                                     0.244     0.244   0.0% |
  ST tci:                                    0.119     0.119   0.0% |
  mktci:                                     0.020     0.020   0.0% |
PWDescriptor:                                0.123     0.123   0.0% |
Redistribute:                                0.094     0.094   0.0% |
SCF-cycle:                                7024.408     1.525   0.0% |
 Davidson:                                3880.877   590.867   2.5% ||
  Apply H:                                 572.109   555.962   2.4% ||
   HMM T:                                   16.147    16.147   0.1% |
  Subspace diag:                           775.483     0.214   0.0% |
   calc_h_matrix:                          636.649    91.017   0.4% |
    Apply H:                               545.632   533.118   2.3% ||
     HMM T:                                 12.514    12.514   0.1% |
   diagonalize:                             43.144    43.144   0.2% |
   rotate_psi:                              95.476    95.476   0.4% |
  calc. matrices:                         1545.875   359.462   1.5% ||
   Apply H:                               1186.412  1156.988   5.0% |-|
    HMM T:                                  29.424    29.424   0.1% |
  diagonalize:                             223.432   223.432   1.0% |
  rotate_psi:                              173.112   173.112   0.7% |
 Density:                                  876.542     0.026   0.0% |
  Atomic density matrices:                   3.577     3.577   0.0% |
  Mix:                                     541.092   541.092   2.3% ||
  Multipole moments:                         0.659     0.659   0.0% |
  Pseudo density:                          331.188   331.171   1.4% ||
   Symmetrize density:                       0.018     0.018   0.0% |
 Hamiltonian:                             2260.112     3.351   0.0% |
  Atomic:                                 1340.524     6.598   0.0% |
   XC Correction:                         1333.926  1333.926   5.7% |-|
  Calculate atomic Hamiltonians:           428.473   428.473   1.8% ||
  Communicate:                               0.012     0.012   0.0% |
  Poisson:                                   4.761     4.761   0.0% |
  XC 3D grid:                              482.990   482.990   2.1% ||
 Orthonormalize:                             5.352     0.013   0.0% |
  calc_s_matrix:                             0.864     0.864   0.0% |
  inverse-cholesky:                          0.214     0.214   0.0% |
  projections:                               2.840     2.840   0.0% |
  rotate_psi_s:                              1.421     1.421   0.0% |
Set symmetry:                                0.001     0.001   0.0% |
Other:                                   16070.787 16070.787  68.9% |---------------------------|
-------------------------------------------------------------------
Total:                                             23317.056 100.0%

Date: Sun Mar 30 21:56:34 2025
