
  ___ ___ ___ _ _ _  
 |   |   |_  | | | | 
 | | | | | . | | | | 
 |__ |  _|___|_____|  24.6.0
 |___|_|             

User:   kerem@DESKTOP-CMKTO4T
Date:   Sun Mar 30 15:27:56 2025
Arch:   x86_64
Pid:    5494
CWD:    /home/kerem
Python: 3.12.9
gpaw:   /home/kerem/miniconda3/envs/gpaw-env/lib/python3.12/site-packages/gpaw
_gpaw:  /home/kerem/miniconda3/envs/gpaw-env/lib/python3.12/site-packages/
        _gpaw.cpython-312-x86_64-linux-gnu.so
ase:    /home/kerem/miniconda3/envs/gpaw-env/lib/python3.12/site-packages/ase (version 3.24.0)
numpy:  /home/kerem/miniconda3/envs/gpaw-env/lib/python3.12/site-packages/numpy (version 1.26.4)
scipy:  /home/kerem/miniconda3/envs/gpaw-env/lib/python3.12/site-packages/scipy (version 1.15.2)
libxc:  6.2.2
units:  Angstrom and eV
cores: 1
OpenMP: True
OMP_NUM_THREADS: 1

Input parameters:
  kpts: [1 1 1]
  mode: {ecut: 300.0,
         name: pw}
  xc: PBE

System changes: positions, numbers, cell, pbc, initial_charges, initial_magmoms 

Initialize ...

species:
  Ni:
    name: Nickel
    id: 0d9f38a9d6e76a2886f07bb4381f212b
    Z: 28.0
    valence: 16
    core: 12
    charge: 0.0
    file: /home/kerem/miniconda3/envs/gpaw-env/share/gpaw/Ni.PBE.gz
    compensation charges: {type: gauss,
                           rc: 0.36,
                           lmax: 2}
    cutoffs: {filter: 2.14,
              core: 1.98}
    projectors:
      #              energy  rcut
      - 4s(2.00)    -5.642   1.164
      - 3p(6.00)   -71.394   1.207
      - 4p(0.00)    -1.226   1.207
      - 3d(8.00)    -8.875   1.138
      -  s          21.570   1.164
      -  d          18.337   1.138
  
    # Using partial waves for Ni as LCAO basis

  H:
    name: Hydrogen
    id: d65de229564ff8ea4db303e23b6d1ecf
    Z: 1.0
    valence: 1
    core: 0
    charge: 0.0
    file: /home/kerem/miniconda3/envs/gpaw-env/share/gpaw/H.PBE.gz
    compensation charges: {type: gauss,
                           rc: 0.15,
                           lmax: 2}
    cutoffs: {filter: 0.85,
              core: 0.53}
    projectors:
      #              energy  rcut
      - 1s(1.00)    -6.494   0.476
      -  s          20.717   0.476
      -  p           0.000   0.476
  
    # Using partial waves for H as LCAO basis

Reference energy: -1116960.938401  # eV

Spin-paired calculation

Convergence criteria:
 Maximum [total energy] change in last 3 cyles: 0.0005 eV / valence electron
 Maximum integral of absolute [dens]ity change: 0.0001 electrons / valence electron
 Maximum integral of absolute [eigenst]ate change: 4e-08 eV^2 / valence electron
 Maximum number of scf [iter]ations: 333
 (Square brackets indicate name in SCF output, whereas a 'c' in
 the SCF output indicates the quantity has converged.)

Symmetries present (total): 1

  ( 1  0  0)
  ( 0  1  0)
  ( 0  0  1)

1 k-point (Gamma)
1 k-point in the irreducible part of the Brillouin zone
       k-points in crystal coordinates                weights
   0:     0.00000000    0.00000000    0.00000000          1/1

Wave functions: Plane wave expansion
  Cutoff energy: 300.000 eV
  Number of coefficients: 13711 (reduced to 6856)
  Pulay-stress correction: 0.000000 eV/Ang^3 (de/decut=0.000000)
  Using FFTW library
  ScaLapack parameters: grid=1x1, blocksize=None
  Wavefunction extrapolation:
    Improved wavefunction reuse through dual PAW basis 

Occupation numbers: Fermi-Dirac:
  width: 0.1000  # eV
 

Eigensolver
   Davidson(niter=2) 

Densities:
  Coarse grid: 30*30*98 grid
  Fine grid: 60*60*196 grid
  Total Charge: 0.000000 

Density mixing:
  Method: separate
  Backend: pulay
  Linear mixing parameter: 0.05
  old densities: 5
  Damping of long wavelength oscillations: 50 

Hamiltonian:
  XC and Coulomb potentials evaluated on a 60*60*196 grid
  Using the PBE Exchange-Correlation functional
  External potential:
    NoExternalPotential
 

XC parameters: PBE with 2 nearest neighbor stencil

Memory estimate:
  Process memory now: 607.65 MiB
  Calculator: 119.38 MiB
    Density: 42.41 MiB
      Arrays: 17.50 MiB
      Localized functions: 18.19 MiB
      Mixer: 6.73 MiB
    Hamiltonian: 11.88 MiB
      Arrays: 11.44 MiB
      XC: 0.00 MiB
      Poisson: 0.00 MiB
      vbar: 0.44 MiB
    Wavefunctions: 65.09 MiB
      Arrays psit_nG: 27.72 MiB
      Eigensolver: 33.61 MiB
      Projections: 1.00 MiB
      Projectors: 0.94 MiB
      PW-descriptor: 1.81 MiB

Total number of cores used: 1

Number of atoms: 29
Number of atomic orbitals: 326
Number of bands in calculation: 265
Number of valence electrons: 434
Bands to converge: occupied

... initialized

Initializing position-dependent things.

Density initialized from atomic densities
Creating initial wave functions:
  265 bands from LCAO basis set

                                         
                                         
                                         
                                         
                                         
                   H                     
                  H                      
                Ni    Ni    Ni           
                                         
           Ni    NNi   NNi   Ni          
       Ni   NNi   NNi   Ni               
                                         
        Ni    Ni   NNi   Ni    Ni        
               Ni    Ni    Ni            
                                         
           Ni    Ni    Ni                
                                         
                                         
                                         
                                         

Positions:
   0 Ni     1.244508    0.718517   10.000000    ( 0.0000,  0.0000,  0.0000)
   1 Ni     3.733524    0.718517   10.000000    ( 0.0000,  0.0000,  0.0000)
   2 Ni     6.222540    0.718517   10.000000    ( 0.0000,  0.0000,  0.0000)
   3 Ni     2.489016    2.874068   10.000000    ( 0.0000,  0.0000,  0.0000)
   4 Ni     4.978032    2.874068   10.000000    ( 0.0000,  0.0000,  0.0000)
   5 Ni     7.467048    2.874068   10.000000    ( 0.0000,  0.0000,  0.0000)
   6 Ni     3.733524    5.029619   10.000000    ( 0.0000,  0.0000,  0.0000)
   7 Ni     6.222540    5.029619   10.000000    ( 0.0000,  0.0000,  0.0000)
   8 Ni     8.711556    5.029619   10.000000    ( 0.0000,  0.0000,  0.0000)
   9 Ni     0.000000    1.437034   12.032273    ( 0.0000,  0.0000,  0.0000)
  10 Ni     2.489016    1.437034   12.032273    ( 0.0000,  0.0000,  0.0000)
  11 Ni     4.978032    1.437034   12.032273    ( 0.0000,  0.0000,  0.0000)
  12 Ni     1.244508    3.592585   12.032273    ( 0.0000,  0.0000,  0.0000)
  13 Ni     3.733524    3.592585   12.032273    ( 0.0000,  0.0000,  0.0000)
  14 Ni     6.222540    3.592585   12.032273    ( 0.0000,  0.0000,  0.0000)
  15 Ni     2.489016    5.748136   12.032273    ( 0.0000,  0.0000,  0.0000)
  16 Ni     4.978032    5.748136   12.032273    ( 0.0000,  0.0000,  0.0000)
  17 Ni     7.467048    5.748136   12.032273    ( 0.0000,  0.0000,  0.0000)
  18 Ni     0.000000    0.000000   14.064546    ( 0.0000,  0.0000,  0.0000)
  19 Ni     2.489016    0.000000   14.064546    ( 0.0000,  0.0000,  0.0000)
  20 Ni     4.978032    0.000000   14.064546    ( 0.0000,  0.0000,  0.0000)
  21 Ni     1.244508    2.155551   14.064546    ( 0.0000,  0.0000,  0.0000)
  22 Ni     3.733524    2.155551   14.064546    ( 0.0000,  0.0000,  0.0000)
  23 Ni     6.222540    2.155551   14.064546    ( 0.0000,  0.0000,  0.0000)
  24 Ni     2.489016    4.311102   14.064546    ( 0.0000,  0.0000,  0.0000)
  25 Ni     4.978032    4.311102   14.064546    ( 0.0000,  0.0000,  0.0000)
  26 Ni     7.467048    4.311102   14.064546    ( 0.0000,  0.0000,  0.0000)
  27 H      3.483524    3.233326   15.814546    ( 0.0000,  0.0000,  0.0000)
  28 H      3.983524    3.233326   16.184546    ( 0.0000,  0.0000,  0.0000)

Unit cell:
           periodic     x           y           z      points  spacing
  1. axis:    yes    7.467048    0.000000    0.000000    30     0.2156
  2. axis:    yes    3.733524    6.466653    0.000000    30     0.2156
  3. axis:    no     0.000000    0.000000   24.064546    98     0.2456

  Lengths:   7.467048   7.467048  24.064546
  Angles:   90.000000  90.000000  60.000000

Effective grid spacing dv^(1/3) = 0.2362

     iter     time        total  log10-change:
                         energy   eigst   dens
iter:   1 15:33:41  -185.823434
iter:   2 15:33:44  -182.545889   -0.80  -1.53
iter:   3 15:33:47  -203.415148   -1.22  -1.58
iter:   4 15:33:50  -209.095690   -1.28  -1.60
iter:   5 15:33:53  -188.478593   -1.59  -1.58
iter:   6 15:33:56  -190.811506   -1.92  -1.69
iter:   7 15:34:00  -182.580243   -1.75  -1.68
iter:   8 15:34:02  -184.209154   -2.13  -1.77
iter:   9 15:34:05  -180.188335   -2.29  -1.76
iter:  10 15:34:08  -180.060666   -2.18  -1.82
iter:  11 15:34:12  -186.719687   -1.93  -1.92
iter:  12 15:34:15  -185.074671   -1.79  -1.86
iter:  13 15:34:23  -182.379282   -2.06  -1.85
iter:  14 15:34:25  -181.157911   -2.22  -1.94
iter:  15 15:34:28  -180.273743   -2.44  -2.04
iter:  16 15:34:31  -179.560288   -2.37  -2.04
iter:  17 15:34:34  -179.276862   -2.56  -2.10
iter:  18 15:34:37  -183.219842   -2.44  -2.19
iter:  19 15:34:40  -178.141839   -2.67  -1.92
iter:  20 15:34:42  -178.044697   -3.06  -2.22
iter:  21 15:34:45  -177.971480c  -3.21  -2.30
iter:  22 15:34:48  -179.141128   -2.95  -2.30
iter:  23 15:34:51  -178.364594   -3.13  -2.15
iter:  24 15:34:54  -178.157720   -3.07  -2.34
iter:  25 15:35:00  -180.606824   -2.66  -2.34
iter:  26 15:35:03  -177.727834   -2.99  -2.04
iter:  27 15:35:06  -177.719904   -3.66  -2.61
iter:  28 15:35:09  -177.779935c  -3.40  -2.54
iter:  29 15:35:11  -177.565931c  -3.64  -2.56
iter:  30 15:35:14  -177.513630   -4.18  -2.75
iter:  31 15:35:17  -177.521947c  -4.87  -2.81
iter:  32 15:35:20  -177.573751c  -4.25  -2.81
iter:  33 15:35:23  -177.527215c  -4.04  -2.73
iter:  34 15:35:25  -177.659606c  -4.24  -2.85
iter:  35 15:35:28  -177.584820c  -3.82  -2.62
iter:  36 15:35:35  -177.565272c  -3.82  -2.84
iter:  37 15:35:37  -177.558347c  -4.00  -2.86
iter:  38 15:35:40  -177.560443c  -4.26  -2.82
iter:  39 15:35:43  -177.513816c  -4.18  -2.88
iter:  40 15:35:46  -177.530583c  -4.84  -3.02
iter:  41 15:35:49  -177.503490c  -5.03  -2.92
iter:  42 15:35:51  -177.512528c  -4.77  -3.13
iter:  43 15:35:54  -177.524933c  -4.60  -3.11
iter:  44 15:35:57  -177.518095c  -4.71  -3.08
iter:  45 15:36:00  -177.542624c  -4.26  -3.06
iter:  46 15:36:03  -177.582383c  -4.38  -3.03
iter:  47 15:36:06  -177.512078c  -4.83  -2.78
iter:  48 15:36:12  -177.506997c  -5.14  -3.24
iter:  49 15:36:15  -177.502946c  -5.41  -3.27
iter:  50 15:36:18  -177.507628c  -5.81  -3.32
iter:  51 15:36:21  -177.509599c  -5.00  -3.27
iter:  52 15:36:23  -177.557232c  -4.57  -3.27
iter:  53 15:36:26  -177.512689c  -4.75  -2.87
iter:  54 15:36:29  -177.513974c  -4.75  -3.23
iter:  55 15:36:32  -177.518525c  -4.86  -3.30
iter:  56 15:36:35  -177.505006c  -5.18  -3.24
iter:  57 15:36:38  -177.505003c  -6.14  -3.39
iter:  58 15:36:40  -177.510560c  -5.26  -3.46
iter:  59 15:36:47  -177.508345c  -5.43  -3.27
iter:  60 15:36:50  -177.506629c  -5.16  -3.38
iter:  61 15:36:52  -177.509689c  -5.02  -3.42
iter:  62 15:36:55  -177.521083c  -4.85  -3.31
iter:  63 15:36:58  -177.506330c  -5.37  -3.16
iter:  64 15:37:01  -177.510317c  -5.50  -3.56
iter:  65 15:37:04  -177.505129c  -5.70  -3.37
iter:  66 15:37:07  -177.504928c  -6.31  -3.58
iter:  67 15:37:09  -177.505582c  -6.20  -3.70
iter:  68 15:37:12  -177.510892c  -5.15  -3.66
iter:  69 15:37:15  -177.505191c  -5.29  -3.25
iter:  70 15:37:21  -177.508607c  -5.57  -3.72
iter:  71 15:37:24  -177.506865c  -5.55  -3.38
iter:  72 15:37:27  -177.504087c  -5.96  -3.61
iter:  73 15:37:30  -177.503795c  -6.80  -3.91
iter:  74 15:37:33  -177.504723c  -6.85  -3.99
iter:  75 15:37:36  -177.503561c  -6.23  -3.90
iter:  76 15:37:38  -177.505206c  -6.23  -3.89
iter:  77 15:37:42  -177.504310c  -5.87  -3.66
iter:  78 15:37:44  -177.504544c  -5.81  -3.67
iter:  79 15:37:47  -177.504219c  -5.97  -3.90
iter:  80 15:37:50  -177.503483c  -6.69  -4.03c
iter:  81 15:37:53  -177.504124c  -6.58  -3.98
iter:  82 15:37:59  -177.503871c  -7.20  -4.20c
iter:  83 15:38:02  -177.504069c  -7.26  -4.15c
iter:  84 15:38:05  -177.503700c  -6.75  -4.20c
iter:  85 15:38:08  -177.503676c  -6.27  -4.18c
iter:  86 15:38:11  -177.504447c  -6.57  -4.09c
iter:  87 15:38:14  -177.503457c  -6.57  -4.00
iter:  88 15:38:16  -177.503837c  -6.81  -4.25c
iter:  89 15:38:19  -177.503603c  -7.70c -4.15c

Converged after 89 iterations.

Dipole moment: (-0.714725, -0.298560, 0.205741) |e|*Ang

Energy contributions relative to reference atoms: (reference = -1116960.938401)

Kinetic:       +264.766169
Potential:     -213.983605
External:        +0.000000
XC:            -231.091000
Entropy (-ST):   -4.231663
Local:           +4.920665
SIC:             +0.000000
--------------------------
Free energy:   -179.619435
Extrapolated:  -177.503603

 Band  Eigenvalues  Occupancy
    0    -65.23428    2.00000
    1    -65.21751    2.00000
    2    -65.21651    2.00000
    3    -65.21433    2.00000
    4    -65.21381    2.00000
    5    -65.21263    2.00000
    6    -65.20377    2.00000
    7    -65.19746    2.00000
    8    -65.19241    2.00000
    9    -64.98912    2.00000
   10    -64.98800    2.00000
   11    -64.98683    2.00000
   12    -64.98536    2.00000
   13    -64.98321    2.00000
   14    -64.98249    2.00000
   15    -64.97518    2.00000
   16    -64.97422    2.00000
   17    -64.97139    2.00000
   18    -64.97114    2.00000
   19    -64.89205    2.00000
   20    -64.89078    2.00000
   21    -64.88971    2.00000
   22    -64.88716    2.00000
   23    -64.88603    2.00000
   24    -64.88466    2.00000
   25    -64.85609    2.00000
   26    -64.85582    2.00000
   27    -64.81505    2.00000
   28    -64.81101    2.00000
   29    -64.80949    2.00000
   30    -64.80934    2.00000
   31    -64.80852    2.00000
   32    -64.80830    2.00000
   33    -64.80729    2.00000
   34    -64.80598    2.00000
   35    -64.80544    2.00000
   36    -64.80403    2.00000
   37    -64.80325    2.00000
   38    -64.79974    2.00000
   39    -64.79898    2.00000
   40    -64.79847    2.00000
   41    -64.79784    2.00000
   42    -64.79749    2.00000
   43    -64.79610    2.00000
   44    -64.79507    2.00000
   45    -64.79259    2.00000
   46    -64.78957    2.00000
   47    -64.74178    2.00000
   48    -64.71867    2.00000
   49    -64.71842    2.00000
   50    -64.71768    2.00000
   51    -64.71709    2.00000
   52    -64.71669    2.00000
   53    -64.71619    2.00000
   54    -64.71538    2.00000
   55    -64.71484    2.00000
   56    -64.71304    2.00000
   57    -64.71278    2.00000
   58    -64.71130    2.00000
   59    -64.70697    2.00000
   60    -64.70174    2.00000
   61    -64.69028    2.00000
   62    -64.68769    2.00000
   63    -64.68642    2.00000
   64    -64.68636    2.00000
   65    -64.68612    2.00000
   66    -64.68574    2.00000
   67    -64.68372    2.00000
   68    -64.68338    2.00000
   69    -64.68290    2.00000
   70    -64.68211    2.00000
   71    -64.68159    2.00000
   72    -64.68104    2.00000
   73    -64.67968    2.00000
   74    -64.67915    2.00000
   75    -64.67652    2.00000
   76    -64.67622    2.00000
   77    -64.67529    2.00000
   78    -64.67321    2.00000
   79    -64.66793    2.00000
   80    -64.66109    2.00000
   81     -9.90295    2.00000
   82     -9.43997    2.00000
   83     -7.51209    2.00000
   84     -6.56698    2.00000
   85     -6.56661    2.00000
   86     -6.56610    2.00000
   87     -6.56284    2.00000
   88     -6.56175    2.00000
   89     -6.54977    2.00000
   90     -6.06433    2.00000
   91     -5.52568    2.00000
   92     -5.52315    2.00000
   93     -5.51899    2.00000
   94     -5.51565    2.00000
   95     -5.51543    2.00000
   96     -5.48911    2.00000
   97     -4.80616    2.00000
   98     -4.80503    2.00000
   99     -4.80483    2.00000
  100     -4.80306    2.00000
  101     -4.80273    2.00000
  102     -4.80077    2.00000
  103     -4.60952    2.00000
  104     -4.60499    2.00000
  105     -4.58662    2.00000
  106     -4.58639    2.00000
  107     -4.58109    2.00000
  108     -4.57976    2.00000
  109     -4.49416    2.00000
  110     -4.48739    2.00000
  111     -4.48414    2.00000
  112     -4.47632    2.00000
  113     -4.47568    2.00000
  114     -4.45708    2.00000
  115     -4.27904    2.00000
  116     -4.27661    2.00000
  117     -4.27207    2.00000
  118     -4.27148    2.00000
  119     -4.00084    2.00000
  120     -3.99262    2.00000
  121     -3.99092    2.00000
  122     -3.99007    2.00000
  123     -3.98874    2.00000
  124     -3.97051    2.00000
  125     -3.57911    2.00000
  126     -3.57161    2.00000
  127     -3.54678    2.00000
  128     -3.54583    2.00000
  129     -3.53990    2.00000
  130     -3.53722    2.00000
  131     -3.53689    2.00000
  132     -3.52179    2.00000
  133     -3.50339    2.00000
  134     -3.44304    2.00000
  135     -3.28367    2.00000
  136     -3.25567    2.00000
  137     -3.25496    2.00000
  138     -3.25072    2.00000
  139     -3.22679    2.00000
  140     -3.22569    2.00000
  141     -3.20437    2.00000
  142     -3.19257    2.00000
  143     -3.18788    2.00000
  144     -3.18517    2.00000
  145     -3.18251    2.00000
  146     -3.18156    2.00000
  147     -3.18116    2.00000
  148     -3.16501    2.00000
  149     -3.14477    2.00000
  150     -3.14076    2.00000
  151     -3.12954    2.00000
  152     -3.12920    2.00000
  153     -3.03963    2.00000
  154     -3.03870    2.00000
  155     -3.03714    2.00000
  156     -3.03597    2.00000
  157     -3.03531    2.00000
  158     -3.03354    2.00000
  159     -2.97195    2.00000
  160     -2.97033    2.00000
  161     -2.95512    2.00000
  162     -2.93366    2.00000
  163     -2.92767    2.00000
  164     -2.92129    2.00000
  165     -2.91875    2.00000
  166     -2.85663    1.99999
  167     -2.61215    1.99990
  168     -2.61033    1.99990
  169     -2.60206    1.99989
  170     -2.60118    1.99989
  171     -2.59904    1.99989
  172     -2.59217    1.99988
  173     -2.32864    1.99833
  174     -2.32703    1.99830
  175     -2.32222    1.99822
  176     -2.32056    1.99819
  177     -2.27560    1.99716
  178     -2.27459    1.99713
  179     -2.26694    1.99690
  180     -2.26473    1.99684
  181     -2.26075    1.99671
  182     -2.25880    1.99664
  183     -2.25841    1.99663
  184     -2.25696    1.99658
  185     -2.14995    1.99006
  186     -2.06542    1.97701
  187     -2.05985    1.97571
  188     -2.05450    1.97439
  189     -2.05367    1.97418
  190     -2.05306    1.97402
  191     -2.00897    1.95991
  192     -1.90262    1.88814
  193     -1.90147    1.88692
  194     -1.87884    1.86021
  195     -1.87786    1.85893
  196     -1.87655    1.85720
  197     -1.87394    1.85370
  198     -1.87342    1.85300
  199     -1.87228    1.85144
  200     -1.79552    1.70520
  201     -1.78256    1.67109
  202     -1.77265    1.64295
  203     -1.77184    1.64056
  204     -1.74457    1.55306
  205     -1.74213    1.54456
  206     -1.74118    1.54120
  207     -1.73994    1.53680
  208     -1.73947    1.53513
  209     -1.73908    1.53374
  210     -1.71036    1.42335
  211     -1.70730    1.41071
  212     -1.68668    1.32154
  213     -1.68530    1.31532
  214     -1.68376    1.30836
  215     -1.68362    1.30772
  216     -1.68314    1.30558
  217     -1.68241    1.30225
  218     -1.59888    0.89472
  219     -1.59825    0.89164
  220     -1.55795    0.69931
  221     -1.55083    0.66725
  222     -1.54834    0.65624
  223     -1.54432    0.63864
  224     -1.54386    0.63666
  225     -1.54278    0.63198
  226     -1.54051    0.62221
  227     -1.54015    0.62063
  228     -1.50990    0.49907
  229     -1.50910    0.49607
  230     -1.50805    0.49216
  231     -1.42611    0.25152
  232     -0.86058    0.00101
  233      0.93568    0.00000
  234      0.97357    0.00000
  235      1.07708    0.00000
  236      1.07934    0.00000
  237      1.08670    0.00000
  238      1.34508    0.00000
  239      2.86984    0.00000
  240      3.30127    0.00000
  241      3.61267    0.00000
  242      3.69544    0.00000
  243      3.82330    0.00000
  244      3.97273    0.00000
  245      3.97773    0.00000
  246      3.98668    0.00000
  247      3.98808    0.00000
  248      4.04800    0.00000
  249      4.05061    0.00000
  250      4.06321    0.00000
  251      4.39936    0.00000
  252      4.43761    0.00000
  253      4.45352    0.00000
  254      4.72083    0.00000
  255      4.89127    0.00000
  256      4.90149    0.00000
  257      5.32924    0.00000
  258      5.79573    0.00000
  259      5.99797    0.00000
  260      6.21396    0.00000
  261      6.26810    0.00000
  262      6.27020    0.00000
  263      6.29956    0.00000
  264      6.35692    0.00000

Fermi level: -1.62001

Gap: 0.084 eV
Transition (v -> c):
  (s=0, k=0, n=217, [0.00, 0.00, 0.00]) -> (s=0, k=0, n=218, [0.00, 0.00, 0.00])
No difference between direct/indirect transitions

Forces in eV/Ang:
  0 Ni    0.05566   -0.01363    0.53300
  1 Ni    0.00180   -0.00420    0.60917
  2 Ni   -0.05615   -0.01105    0.53573
  3 Ni   -0.01469   -0.00707    0.56216
  4 Ni    0.01810   -0.01001    0.56684
  5 Ni   -0.00352    0.04903    0.55875
  6 Ni   -0.00092    0.00459    0.54434
  7 Ni    0.01338   -0.00194    0.62555
  8 Ni   -0.01224    0.00042    0.63080
  9 Ni   -0.00757   -0.00786    0.08270
 10 Ni    0.02388    0.06668    0.01068
 11 Ni   -0.00897    0.05640   -0.00396
 12 Ni    0.05829   -0.01347   -0.02440
 13 Ni   -0.00583    0.04161   -0.11289
 14 Ni   -0.05770   -0.01274   -0.01945
 15 Ni    0.06747   -0.04840    0.00667
 16 Ni   -0.06922   -0.06171    0.02148
 17 Ni    0.00291   -0.00337   -0.05318
 18 Ni   -0.00355    0.02219   -0.55827
 19 Ni   -0.01047   -0.04848   -0.55085
 20 Ni    0.01546   -0.04904   -0.55935
 21 Ni   -0.10468   -0.01097   -0.59070
 22 Ni    0.01318   -0.10238   -0.41726
 23 Ni    0.12208   -0.02210   -0.61256
 24 Ni   -0.24586    0.20497   -0.74675
 25 Ni    0.21514    0.18832   -0.71939
 26 Ni    0.00082   -0.00300   -0.52259
 27 H    -6.36522   -0.04230   -4.52668
 28 H     6.35903   -0.15991    4.72565

System changes: positions 

Initializing position-dependent things.

Density initialized from wave functions
                                         
                                         
                                         
                                         
                                         
                   H                     
                 H                       
                Ni    Ni    Ni           
                                         
           Ni    NNi   NNi   Ni          
       Ni   NNi   NNi   Ni               
                                         
        Ni    Ni   NNi   Ni    Ni        
               Ni    Ni    Ni            
                                         
           Ni    Ni    Ni                
                                         
                                         
                                         
                                         

Positions:
   0 Ni     1.245303    0.718322   10.007614    ( 0.0000,  0.0000,  0.0000)
   1 Ni     3.733549    0.718457   10.008702    ( 0.0000,  0.0000,  0.0000)
   2 Ni     6.221738    0.718359   10.007653    ( 0.0000,  0.0000,  0.0000)
   3 Ni     2.488806    2.873967   10.008031    ( 0.0000,  0.0000,  0.0000)
   4 Ni     4.978290    2.873925   10.008098    ( 0.0000,  0.0000,  0.0000)
   5 Ni     7.466997    2.874768   10.007982    ( 0.0000,  0.0000,  0.0000)
   6 Ni     3.733511    5.029684   10.007776    ( 0.0000,  0.0000,  0.0000)
   7 Ni     6.222731    5.029591   10.008936    ( 0.0000,  0.0000,  0.0000)
   8 Ni     8.711381    5.029625   10.009011    ( 0.0000,  0.0000,  0.0000)
   9 Ni    -0.000108    1.436922   12.033454    ( 0.0000,  0.0000,  0.0000)
  10 Ni     2.489357    1.437987   12.032426    ( 0.0000,  0.0000,  0.0000)
  11 Ni     4.977904    1.437840   12.032216    ( 0.0000,  0.0000,  0.0000)
  12 Ni     1.245341    3.592393   12.031924    ( 0.0000,  0.0000,  0.0000)
  13 Ni     3.733441    3.593179   12.030660    ( 0.0000,  0.0000,  0.0000)
  14 Ni     6.221715    3.592403   12.031995    ( 0.0000,  0.0000,  0.0000)
  15 Ni     2.489980    5.747444   12.032368    ( 0.0000,  0.0000,  0.0000)
  16 Ni     4.977043    5.747254   12.032580    ( 0.0000,  0.0000,  0.0000)
  17 Ni     7.467089    5.748088   12.031513    ( 0.0000,  0.0000,  0.0000)
  18 Ni    -0.000051    0.000317   14.056571    ( 0.0000,  0.0000,  0.0000)
  19 Ni     2.488866   -0.000693   14.056677    ( 0.0000,  0.0000,  0.0000)
  20 Ni     4.978253   -0.000701   14.056555    ( 0.0000,  0.0000,  0.0000)
  21 Ni     1.243012    2.155394   14.056107    ( 0.0000,  0.0000,  0.0000)
  22 Ni     3.733712    2.154088   14.058585    ( 0.0000,  0.0000,  0.0000)
  23 Ni     6.224284    2.155235   14.055795    ( 0.0000,  0.0000,  0.0000)
  24 Ni     2.485504    4.314030   14.053878    ( 0.0000,  0.0000,  0.0000)
  25 Ni     4.981105    4.313792   14.054269    ( 0.0000,  0.0000,  0.0000)
  26 Ni     7.467059    4.311059   14.057080    ( 0.0000,  0.0000,  0.0000)
  27 H      3.394952    3.232722   15.756960    ( 0.0000,  0.0000,  0.0000)
  28 H      4.072007    3.231042   16.262629    ( 0.0000,  0.0000,  0.0000)

Unit cell:
           periodic     x           y           z      points  spacing
  1. axis:    yes    7.467048    0.000000    0.000000    30     0.2156
  2. axis:    yes    3.733524    6.466653    0.000000    30     0.2156
  3. axis:    no     0.000000    0.000000   24.064546    98     0.2456

  Lengths:   7.467048   7.467048  24.064546
  Angles:   90.000000  90.000000  60.000000

Effective grid spacing dv^(1/3) = 0.2362

     iter     time        total  log10-change:
                         energy   eigst   dens
iter:   1 15:47:25  -189.991997   -1.29
iter:   2 15:47:32  -265.494420   -0.96  -1.76
iter:   3 15:47:35  -185.318141   -1.35  -1.51
iter:   4 15:47:38  -182.448648   -1.89  -1.94
iter:   5 15:47:40  -183.323371   -2.27  -1.90
iter:   6 15:47:43  -179.661560   -2.81  -2.00
iter:   7 15:47:46  -178.991460   -2.87  -2.17
iter:   8 15:47:49  -179.017706   -3.08  -2.31
iter:   9 15:47:52  -178.673175   -3.13  -2.25
iter:  10 15:47:54  -178.902843   -3.10  -2.39
iter:  11 15:47:57  -178.565376   -3.27  -2.34
iter:  12 15:48:00  -179.179257   -3.11  -2.47
iter:  13 15:48:06  -178.580713   -3.31  -2.20
iter:  14 15:48:09  -178.562076   -3.74  -2.42
iter:  15 15:48:12  -178.554408c  -3.32  -2.40
iter:  16 15:48:15  -178.305850   -3.47  -2.50
iter:  17 15:48:18  -178.285674   -4.30  -2.63
iter:  18 15:48:21  -178.489630c  -3.53  -2.62
iter:  19 15:48:23  -178.210852   -3.68  -2.55
iter:  20 15:48:26  -178.173320   -4.43  -2.81
iter:  21 15:48:29  -178.218248c  -4.59  -2.99
iter:  22 15:48:32  -178.208588c  -4.04  -2.78
iter:  23 15:48:35  -178.173329c  -4.12  -2.87
iter:  24 15:48:38  -178.178394c  -4.76  -3.05
iter:  25 15:48:44  -178.232493c  -4.04  -2.93
iter:  26 15:48:47  -178.169671c  -4.26  -2.87
iter:  27 15:48:50  -178.168006c  -4.62  -3.10
iter:  28 15:48:52  -178.157975c  -4.90  -3.03
iter:  29 15:48:55  -178.151966c  -4.79  -3.23
iter:  30 15:48:58  -178.151015c  -5.59  -3.28
iter:  31 15:49:01  -178.155149c  -5.00  -3.32
iter:  32 15:49:04  -178.153176c  -4.78  -3.18
iter:  33 15:49:07  -178.166489c  -4.83  -3.31
iter:  34 15:49:10  -178.152693c  -5.05  -3.11
iter:  35 15:49:12  -178.169811c  -4.66  -3.28
iter:  36 15:49:19  -178.151665c  -4.97  -3.14
iter:  37 15:49:22  -178.149403c  -5.63  -3.26
iter:  38 15:49:25  -178.148986c  -5.58  -3.50
iter:  39 15:49:27  -178.146556c  -5.44  -3.43
iter:  40 15:49:30  -178.151630c  -5.53  -3.51
iter:  41 15:49:33  -178.152494c  -5.20  -3.33
iter:  42 15:49:36  -178.163487c  -4.91  -3.32
iter:  43 15:49:39  -178.148192c  -5.30  -3.14
iter:  44 15:49:42  -178.150394c  -5.26  -3.50
iter:  45 15:49:44  -178.151255c  -5.41  -3.47
iter:  46 15:49:47  -178.148864c  -5.53  -3.50
iter:  47 15:49:54  -178.148715c  -6.04  -3.45
iter:  48 15:49:56  -178.152439c  -5.25  -3.56
iter:  49 15:49:59  -178.148642c  -5.56  -3.27
iter:  50 15:50:02  -178.147319c  -5.55  -3.63
iter:  51 15:50:05  -178.147779c  -5.50  -3.63
iter:  52 15:50:08  -178.149835c  -5.45  -3.51
iter:  53 15:50:11  -178.146911c  -6.08  -3.49
iter:  54 15:50:13  -178.149699c  -5.90  -3.76
iter:  55 15:50:16  -178.146448c  -6.11  -3.56
iter:  56 15:50:19  -178.146877c  -6.31  -3.83
iter:  57 15:50:22  -178.147564c  -6.34  -3.94
iter:  58 15:50:25  -178.148063c  -5.66  -3.76
iter:  59 15:50:31  -178.146688c  -5.82  -3.52
iter:  60 15:50:34  -178.147587c  -5.93  -3.90
iter:  61 15:50:37  -178.147406c  -5.95  -3.53
iter:  62 15:50:39  -178.146513c  -6.48  -3.83
iter:  63 15:50:42  -178.146472c  -6.95  -4.04c
iter:  64 15:50:45  -178.147338c  -6.47  -3.97
iter:  65 15:50:48  -178.146504c  -6.28  -3.90
iter:  66 15:50:51  -178.147998c  -6.44  -4.03c
iter:  67 15:50:53  -178.146114c  -5.95  -3.70
iter:  68 15:50:56  -178.146711c  -6.03  -3.79
iter:  69 15:50:59  -178.146708c  -6.27  -3.96
iter:  70 15:51:06  -178.146223c  -6.71  -3.97
iter:  71 15:51:08  -178.146534c  -6.49  -4.07c
iter:  72 15:51:11  -178.146362c  -7.12  -4.16c
iter:  73 15:51:14  -178.147047c  -6.68  -3.99
iter:  74 15:51:17  -178.146481c  -6.60  -4.07c
iter:  75 15:51:19  -178.146381c  -6.32  -4.13c
iter:  76 15:51:22  -178.146662c  -6.71  -4.01c
iter:  77 15:51:25  -178.146209c  -6.47  -4.10c
iter:  78 15:51:28  -178.146602c  -6.86  -4.17c
iter:  79 15:51:31  -178.146127c  -7.31  -4.09c
iter:  80 15:51:34  -178.146309c  -7.56c -4.47c

Converged after 80 iterations.

Dipole moment: (-0.505653, -0.289016, 0.208988) |e|*Ang

Energy contributions relative to reference atoms: (reference = -1116960.938401)

Kinetic:       +259.988088
Potential:     -211.079519
External:        +0.000000
XC:            -229.806823
Entropy (-ST):   -4.193820
Local:           +4.848855
SIC:             +0.000000
--------------------------
Free energy:   -180.243220
Extrapolated:  -178.146309

 Band  Eigenvalues  Occupancy
    0    -65.25873    2.00000
    1    -65.24259    2.00000
    2    -65.24090    2.00000
    3    -65.23842    2.00000
    4    -65.23684    2.00000
    5    -65.23564    2.00000
    6    -65.22683    2.00000
    7    -65.22109    2.00000
    8    -65.21620    2.00000
    9    -65.00604    2.00000
   10    -65.00308    2.00000
   11    -65.00208    2.00000
   12    -65.00168    2.00000
   13    -64.99958    2.00000
   14    -64.99748    2.00000
   15    -64.99039    2.00000
   16    -64.98959    2.00000
   17    -64.98740    2.00000
   18    -64.98531    2.00000
   19    -64.90853    2.00000
   20    -64.90585    2.00000
   21    -64.90500    2.00000
   22    -64.90347    2.00000
   23    -64.90040    2.00000
   24    -64.89905    2.00000
   25    -64.87145    2.00000
   26    -64.87055    2.00000
   27    -64.82929    2.00000
   28    -64.82132    2.00000
   29    -64.82076    2.00000
   30    -64.82047    2.00000
   31    -64.82017    2.00000
   32    -64.81921    2.00000
   33    -64.81869    2.00000
   34    -64.81744    2.00000
   35    -64.81693    2.00000
   36    -64.81659    2.00000
   37    -64.81640    2.00000
   38    -64.81193    2.00000
   39    -64.81089    2.00000
   40    -64.81023    2.00000
   41    -64.80878    2.00000
   42    -64.80830    2.00000
   43    -64.80777    2.00000
   44    -64.80676    2.00000
   45    -64.80389    2.00000
   46    -64.80210    2.00000
   47    -64.76328    2.00000
   48    -64.73188    2.00000
   49    -64.72904    2.00000
   50    -64.72855    2.00000
   51    -64.72804    2.00000
   52    -64.72785    2.00000
   53    -64.72726    2.00000
   54    -64.72665    2.00000
   55    -64.72651    2.00000
   56    -64.72548    2.00000
   57    -64.72481    2.00000
   58    -64.72361    2.00000
   59    -64.71883    2.00000
   60    -64.71773    2.00000
   61    -64.70745    2.00000
   62    -64.70285    2.00000
   63    -64.70234    2.00000
   64    -64.70157    2.00000
   65    -64.70042    2.00000
   66    -64.69955    2.00000
   67    -64.69868    2.00000
   68    -64.69833    2.00000
   69    -64.69719    2.00000
   70    -64.69688    2.00000
   71    -64.69669    2.00000
   72    -64.69613    2.00000
   73    -64.69589    2.00000
   74    -64.69427    2.00000
   75    -64.69307    2.00000
   76    -64.69279    2.00000
   77    -64.69168    2.00000
   78    -64.69099    2.00000
   79    -64.68834    2.00000
   80    -64.67811    2.00000
   81     -9.73614    2.00000
   82     -8.71304    2.00000
   83     -7.44457    2.00000
   84     -6.60045    2.00000
   85     -6.59830    2.00000
   86     -6.59620    2.00000
   87     -6.59332    2.00000
   88     -6.59084    2.00000
   89     -6.56667    2.00000
   90     -6.06699    2.00000
   91     -5.55114    2.00000
   92     -5.54796    2.00000
   93     -5.54357    2.00000
   94     -5.53977    2.00000
   95     -5.53948    2.00000
   96     -5.49660    2.00000
   97     -4.82959    2.00000
   98     -4.82873    2.00000
   99     -4.82823    2.00000
  100     -4.82731    2.00000
  101     -4.82643    2.00000
  102     -4.82180    2.00000
  103     -4.64149    2.00000
  104     -4.63885    2.00000
  105     -4.61938    2.00000
  106     -4.61840    2.00000
  107     -4.61212    2.00000
  108     -4.61059    2.00000
  109     -4.51618    2.00000
  110     -4.50577    2.00000
  111     -4.50061    2.00000
  112     -4.49591    2.00000
  113     -4.49564    2.00000
  114     -4.46954    2.00000
  115     -4.30663    2.00000
  116     -4.30629    2.00000
  117     -4.29992    2.00000
  118     -4.29908    2.00000
  119     -4.02710    2.00000
  120     -4.01769    2.00000
  121     -4.01403    2.00000
  122     -4.01369    2.00000
  123     -4.01338    2.00000
  124     -3.99100    2.00000
  125     -3.59524    2.00000
  126     -3.58911    2.00000
  127     -3.56473    2.00000
  128     -3.55975    2.00000
  129     -3.55314    2.00000
  130     -3.55089    2.00000
  131     -3.54985    2.00000
  132     -3.53216    2.00000
  133     -3.50779    2.00000
  134     -3.44851    2.00000
  135     -3.30957    2.00000
  136     -3.27581    2.00000
  137     -3.27528    2.00000
  138     -3.26409    2.00000
  139     -3.23747    2.00000
  140     -3.23643    2.00000
  141     -3.21618    2.00000
  142     -3.20567    2.00000
  143     -3.19996    2.00000
  144     -3.19908    2.00000
  145     -3.19458    2.00000
  146     -3.19382    2.00000
  147     -3.19280    2.00000
  148     -3.17467    2.00000
  149     -3.15854    2.00000
  150     -3.15296    2.00000
  151     -3.15143    2.00000
  152     -3.15057    2.00000
  153     -3.07086    2.00000
  154     -3.07048    2.00000
  155     -3.06916    2.00000
  156     -3.06830    2.00000
  157     -3.06720    2.00000
  158     -3.06472    2.00000
  159     -2.98785    2.00000
  160     -2.98250    2.00000
  161     -2.97415    2.00000
  162     -2.94756    2.00000
  163     -2.94143    2.00000
  164     -2.93528    2.00000
  165     -2.93141    2.00000
  166     -2.86252    1.99999
  167     -2.62895    1.99991
  168     -2.62491    1.99991
  169     -2.61631    1.99990
  170     -2.61426    1.99989
  171     -2.61287    1.99989
  172     -2.60488    1.99988
  173     -2.33547    1.99829
  174     -2.33279    1.99825
  175     -2.32654    1.99813
  176     -2.32453    1.99809
  177     -2.29194    1.99736
  178     -2.28958    1.99730
  179     -2.28633    1.99721
  180     -2.28300    1.99712
  181     -2.28200    1.99709
  182     -2.27807    1.99697
  183     -2.27777    1.99696
  184     -2.27717    1.99694
  185     -2.13934    1.98792
  186     -2.07388    1.97689
  187     -2.07025    1.97604
  188     -2.06263    1.97417
  189     -2.06157    1.97390
  190     -2.06047    1.97361
  191     -2.00036    1.95238
  192     -1.91967    1.89636
  193     -1.91757    1.89428
  194     -1.89434    1.86844
  195     -1.89181    1.86531
  196     -1.89119    1.86452
  197     -1.88819    1.86068
  198     -1.88736    1.85961
  199     -1.88566    1.85737
  200     -1.80616    1.70933
  201     -1.79373    1.67706
  202     -1.78078    1.64046
  203     -1.77981    1.63756
  204     -1.75745    1.56645
  205     -1.75604    1.56165
  206     -1.75335    1.55237
  207     -1.75064    1.54287
  208     -1.75054    1.54254
  209     -1.74978    1.53983
  210     -1.71890    1.42152
  211     -1.71596    1.40935
  212     -1.69680    1.32662
  213     -1.69513    1.31912
  214     -1.69431    1.31545
  215     -1.69268    1.30809
  216     -1.69206    1.30528
  217     -1.69198    1.30491
  218     -1.60712    0.89108
  219     -1.60593    0.88518
  220     -1.57990    0.75933
  221     -1.55689    0.65433
  222     -1.55407    0.64196
  223     -1.54969    0.62303
  224     -1.54948    0.62211
  225     -1.54817    0.61654
  226     -1.54613    0.60785
  227     -1.54580    0.60648
  228     -1.51519    0.48537
  229     -1.51240    0.47518
  230     -1.51213    0.47419
  231     -1.42291    0.22592
  232     -0.79696    0.00049
  233      0.84023    0.00000
  234      0.97495    0.00000
  235      1.08547    0.00000
  236      1.08846    0.00000
  237      1.09641    0.00000
  238      1.32928    0.00000
  239      2.80463    0.00000
  240      3.26153    0.00000
  241      3.41559    0.00000
  242      3.66661    0.00000
  243      3.80534    0.00000
  244      3.95586    0.00000
  245      3.96253    0.00000
  246      3.97101    0.00000
  247      3.97277    0.00000
  248      4.05300    0.00000
  249      4.05639    0.00000
  250      4.07112    0.00000
  251      4.37278    0.00000
  252      4.41495    0.00000
  253      4.43690    0.00000
  254      4.74649    0.00000
  255      4.87073    0.00000
  256      4.88055    0.00000
  257      5.30949    0.00000
  258      5.55753    0.00000
  259      5.95228    0.00000
  260      6.18578    0.00000
  261      6.26307    0.00000
  262      6.26835    0.00000
  263      6.30538    0.00000
  264      6.33867    0.00000

Fermi level: -1.62900

Gap: 0.085 eV
Transition (v -> c):
  (s=0, k=0, n=217, [0.00, 0.00, 0.00]) -> (s=0, k=0, n=218, [0.00, 0.00, 0.00])
No difference between direct/indirect transitions

Forces in eV/Ang:
  0 Ni    0.05563   -0.00868    0.48554
  1 Ni   -0.00016   -0.00036    0.57365
  2 Ni   -0.05306   -0.00634    0.49051
  3 Ni   -0.01673   -0.00661    0.51173
  4 Ni    0.01866   -0.01093    0.52019
  5 Ni   -0.00232    0.04665    0.51689
  6 Ni   -0.00271    0.00441    0.49625
  7 Ni    0.01291   -0.00221    0.58911
  8 Ni   -0.00981   -0.00240    0.59950
  9 Ni   -0.00955   -0.01765    0.08565
 10 Ni    0.02658    0.06587    0.01022
 11 Ni   -0.00290    0.04392   -0.01733
 12 Ni    0.06208   -0.01184   -0.03978
 13 Ni   -0.01502    0.03494   -0.11839
 14 Ni   -0.05669   -0.00605   -0.02933
 15 Ni    0.06580   -0.03153   -0.00939
 16 Ni   -0.06717   -0.05337    0.02088
 17 Ni    0.00369   -0.00077   -0.05793
 18 Ni   -0.00208    0.02062   -0.51945
 19 Ni   -0.01026   -0.04684   -0.51517
 20 Ni    0.01411   -0.05148   -0.53184
 21 Ni   -0.08230    0.00028   -0.51828
 22 Ni   -0.00579    0.00641   -0.12397
 23 Ni    0.11695   -0.01711   -0.55618
 24 Ni   -0.20118    0.13170   -0.55820
 25 Ni    0.16513    0.13457   -0.54507
 26 Ni    0.00233   -0.00458   -0.47997
 27 H     0.64599   -0.05217    0.36984
 28 H    -0.65586   -0.15978   -0.67197

System changes: positions 

Initializing position-dependent things.

Density initialized from wave functions
                                         
                                         
                                         
                                         
                                         
                   H                     
                 H                       
                Ni    Ni    Ni           
                                         
           Ni    NNi   NNi   Ni          
       Ni   NNi   NNi   Ni               
                                         
        Ni    Ni   NNi   Ni    Ni        
               Ni    Ni    Ni            
                                         
           Ni    Ni    Ni                
                                         
                                         
                                         
                                         

Positions:
   0 Ni     1.246107    0.718192   10.014689    ( 0.0000,  0.0000,  0.0000)
   1 Ni     3.733549    0.718448   10.017038    ( 0.0000,  0.0000,  0.0000)
   2 Ni     6.220967    0.718263   10.014797    ( 0.0000,  0.0000,  0.0000)
   3 Ni     2.488566    2.873871   10.015487    ( 0.0000,  0.0000,  0.0000)
   4 Ni     4.978560    2.873768   10.015672    ( 0.0000,  0.0000,  0.0000)
   5 Ni     7.466963    2.875445   10.015504    ( 0.0000,  0.0000,  0.0000)
   6 Ni     3.733473    5.029748   10.015006    ( 0.0000,  0.0000,  0.0000)
   7 Ni     6.222918    5.029560   10.017497    ( 0.0000,  0.0000,  0.0000)
   8 Ni     8.711237    5.029593   10.017717    ( 0.0000,  0.0000,  0.0000)
   9 Ni    -0.000244    1.436676   12.034690    ( 0.0000,  0.0000,  0.0000)
  10 Ni     2.489738    1.438939   12.032574    ( 0.0000,  0.0000,  0.0000)
  11 Ni     4.977856    1.438487   12.031979    ( 0.0000,  0.0000,  0.0000)
  12 Ni     1.246234    3.592220   12.031365    ( 0.0000,  0.0000,  0.0000)
  13 Ni     3.733233    3.593691   12.028954    ( 0.0000,  0.0000,  0.0000)
  14 Ni     6.220895    3.592309   12.031581    ( 0.0000,  0.0000,  0.0000)
  15 Ni     2.490933    5.746972   12.032249    ( 0.0000,  0.0000,  0.0000)
  16 Ni     4.976070    5.746475   12.032882    ( 0.0000,  0.0000,  0.0000)
  17 Ni     7.467142    5.748074   12.030681    ( 0.0000,  0.0000,  0.0000)
  18 Ni    -0.000082    0.000617   14.049015    ( 0.0000,  0.0000,  0.0000)
  19 Ni     2.488718   -0.001371   14.049185    ( 0.0000,  0.0000,  0.0000)
  20 Ni     4.978458   -0.001442   14.048831    ( 0.0000,  0.0000,  0.0000)
  21 Ni     1.241801    2.155387   14.048535    ( 0.0000,  0.0000,  0.0000)
  22 Ni     3.733647    2.154072   14.056492    ( 0.0000,  0.0000,  0.0000)
  23 Ni     6.225979    2.154983   14.047691    ( 0.0000,  0.0000,  0.0000)
  24 Ni     2.482551    4.316006   14.045614    ( 0.0000,  0.0000,  0.0000)
  25 Ni     4.983541    4.315790   14.046208    ( 0.0000,  0.0000,  0.0000)
  26 Ni     7.467092    4.310994   14.050091    ( 0.0000,  0.0000,  0.0000)
  27 H      3.397718    3.231978   15.758460    ( 0.0000,  0.0000,  0.0000)
  28 H      4.069102    3.228733   16.260104    ( 0.0000,  0.0000,  0.0000)

Unit cell:
           periodic     x           y           z      points  spacing
  1. axis:    yes    7.467048    0.000000    0.000000    30     0.2156
  2. axis:    yes    3.733524    6.466653    0.000000    30     0.2156
  3. axis:    no     0.000000    0.000000   24.064546    98     0.2456

  Lengths:   7.467048   7.467048  24.064546
  Angles:   90.000000  90.000000  60.000000

Effective grid spacing dv^(1/3) = 0.2362

     iter     time        total  log10-change:
                         energy   eigst   dens
iter:   1 15:56:33  -179.997369   -2.47
iter:   2 15:56:35  -217.384773   -1.65  -2.16
iter:   3 15:56:38  -180.697844   -2.08  -1.61
iter:   4 15:56:41  -184.032381   -2.28  -2.10
iter:   5 15:56:44  -179.926041   -3.09  -1.92
iter:   6 15:56:47  -178.508471   -3.19  -2.20
iter:   7 15:56:49  -178.379836   -3.86  -2.62
iter:   8 15:56:52  -178.346601c  -4.30  -2.79
iter:   9 15:56:55  -178.299113c  -5.10  -2.79
iter:  10 15:56:58  -178.314508c  -4.59  -2.96
iter:  11 15:57:04  -178.269456c  -4.32  -2.94
iter:  12 15:57:07  -178.285518c  -4.47  -3.14
iter:  13 15:57:10  -178.270699c  -4.48  -2.99
iter:  14 15:57:13  -178.260405c  -4.81  -3.14
iter:  15 15:57:16  -178.258906c  -5.03  -3.29
iter:  16 15:57:18  -178.250003c  -5.44  -3.26
iter:  17 15:57:21  -178.249519c  -5.87  -3.44
iter:  18 15:57:24  -178.246876c  -6.11  -3.58
iter:  19 15:57:27  -178.248330c  -5.49  -3.65
iter:  20 15:57:30  -178.248263c  -5.53  -3.49
iter:  21 15:57:32  -178.245653c  -5.54  -3.52
iter:  22 15:57:35  -178.242540c  -5.93  -3.60
iter:  23 15:57:42  -178.241400c  -5.48  -3.83
iter:  24 15:57:44  -178.242241c  -5.79  -3.66
iter:  25 15:57:47  -178.242171c  -6.60  -3.93
iter:  26 15:57:50  -178.242145c  -6.62  -3.87
iter:  27 15:57:53  -178.242089c  -6.70  -3.96
iter:  28 15:57:56  -178.242083c  -6.96  -3.93
iter:  29 15:57:59  -178.241707c  -6.60  -4.03c
iter:  30 15:58:01  -178.241935c  -6.49  -4.10c
iter:  31 15:58:04  -178.242305c  -6.93  -4.08c
iter:  32 15:58:07  -178.242592c  -6.86  -4.09c
iter:  33 15:58:10  -178.242305c  -6.96  -3.99
iter:  34 15:58:16  -178.241543c  -6.61  -4.03c
iter:  35 15:58:19  -178.242165c  -7.02  -4.15c
iter:  36 15:58:22  -178.241824c  -6.83  -4.24c
iter:  37 15:58:25  -178.241088c  -6.55  -4.30c
iter:  38 15:58:27  -178.241700c  -6.75  -4.23c
iter:  39 15:58:30  -178.241634c  -7.25  -4.13c
iter:  40 15:58:33  -178.241759c  -7.21  -4.24c
iter:  41 15:58:36  -178.241375c  -7.51c -4.42c

Converged after 41 iterations.

Dipole moment: (-0.327282, -0.272254, 0.207201) |e|*Ang

Energy contributions relative to reference atoms: (reference = -1116960.938401)

Kinetic:       +262.567356
Potential:     -213.080051
External:        +0.000000
XC:            -230.521479
Entropy (-ST):   -4.156956
Local:           +4.871277
SIC:             +0.000000
--------------------------
Free energy:   -180.319853
Extrapolated:  -178.241375

 Band  Eigenvalues  Occupancy
    0    -65.26945    2.00000
    1    -65.25340    2.00000
    2    -65.25100    2.00000
    3    -65.24994    2.00000
    4    -65.24680    2.00000
    5    -65.24555    2.00000
    6    -65.23702    2.00000
    7    -65.23018    2.00000
    8    -65.22551    2.00000
    9    -65.00906    2.00000
   10    -65.00536    2.00000
   11    -65.00481    2.00000
   12    -65.00358    2.00000
   13    -65.00218    2.00000
   14    -65.00001    2.00000
   15    -64.99257    2.00000
   16    -64.99215    2.00000
   17    -64.99005    2.00000
   18    -64.98738    2.00000
   19    -64.91083    2.00000
   20    -64.90791    2.00000
   21    -64.90720    2.00000
   22    -64.90560    2.00000
   23    -64.90253    2.00000
   24    -64.90142    2.00000
   25    -64.87371    2.00000
   26    -64.87252    2.00000
   27    -64.82155    2.00000
   28    -64.81976    2.00000
   29    -64.81913    2.00000
   30    -64.81844    2.00000
   31    -64.81836    2.00000
   32    -64.81789    2.00000
   33    -64.81650    2.00000
   34    -64.81538    2.00000
   35    -64.81470    2.00000
   36    -64.81439    2.00000
   37    -64.81240    2.00000
   38    -64.80966    2.00000
   39    -64.80852    2.00000
   40    -64.80724    2.00000
   41    -64.80656    2.00000
   42    -64.80649    2.00000
   43    -64.80570    2.00000
   44    -64.80318    2.00000
   45    -64.79991    2.00000
   46    -64.79916    2.00000
   47    -64.75731    2.00000
   48    -64.72751    2.00000
   49    -64.72712    2.00000
   50    -64.72671    2.00000
   51    -64.72660    2.00000
   52    -64.72589    2.00000
   53    -64.72535    2.00000
   54    -64.72469    2.00000
   55    -64.72398    2.00000
   56    -64.72295    2.00000
   57    -64.72216    2.00000
   58    -64.72108    2.00000
   59    -64.71972    2.00000
   60    -64.71390    2.00000
   61    -64.71084    2.00000
   62    -64.70621    2.00000
   63    -64.70510    2.00000
   64    -64.70469    2.00000
   65    -64.70445    2.00000
   66    -64.70333    2.00000
   67    -64.70229    2.00000
   68    -64.70223    2.00000
   69    -64.69999    2.00000
   70    -64.69895    2.00000
   71    -64.69720    2.00000
   72    -64.69611    2.00000
   73    -64.69556    2.00000
   74    -64.69503    2.00000
   75    -64.69466    2.00000
   76    -64.69427    2.00000
   77    -64.69204    2.00000
   78    -64.69024    2.00000
   79    -64.68832    2.00000
   80    -64.68006    2.00000
   81     -9.75081    2.00000
   82     -8.71853    2.00000
   83     -7.45098    2.00000
   84     -6.61984    2.00000
   85     -6.61637    2.00000
   86     -6.61419    2.00000
   87     -6.61069    2.00000
   88     -6.60711    2.00000
   89     -6.58213    2.00000
   90     -6.07351    2.00000
   91     -5.56190    2.00000
   92     -5.55914    2.00000
   93     -5.55526    2.00000
   94     -5.55101    2.00000
   95     -5.55051    2.00000
   96     -5.50690    2.00000
   97     -4.84057    2.00000
   98     -4.83963    2.00000
   99     -4.83852    2.00000
  100     -4.83725    2.00000
  101     -4.83619    2.00000
  102     -4.83151    2.00000
  103     -4.65913    2.00000
  104     -4.65785    2.00000
  105     -4.63538    2.00000
  106     -4.63441    2.00000
  107     -4.63108    2.00000
  108     -4.62944    2.00000
  109     -4.52096    2.00000
  110     -4.51142    2.00000
  111     -4.50347    2.00000
  112     -4.50214    2.00000
  113     -4.50186    2.00000
  114     -4.47633    2.00000
  115     -4.32121    2.00000
  116     -4.31882    2.00000
  117     -4.31525    2.00000
  118     -4.31461    2.00000
  119     -4.03714    2.00000
  120     -4.02930    2.00000
  121     -4.02521    2.00000
  122     -4.02407    2.00000
  123     -4.02358    2.00000
  124     -4.00266    2.00000
  125     -3.59788    2.00000
  126     -3.59271    2.00000
  127     -3.56570    2.00000
  128     -3.55989    2.00000
  129     -3.55381    2.00000
  130     -3.55158    2.00000
  131     -3.55055    2.00000
  132     -3.53177    2.00000
  133     -3.50011    2.00000
  134     -3.44468    2.00000
  135     -3.30532    2.00000
  136     -3.28296    2.00000
  137     -3.28227    2.00000
  138     -3.26254    2.00000
  139     -3.23740    2.00000
  140     -3.23668    2.00000
  141     -3.21297    2.00000
  142     -3.20431    2.00000
  143     -3.20026    2.00000
  144     -3.19813    2.00000
  145     -3.19365    2.00000
  146     -3.19315    2.00000
  147     -3.19154    2.00000
  148     -3.17409    2.00000
  149     -3.16038    2.00000
  150     -3.15975    2.00000
  151     -3.15932    2.00000
  152     -3.15169    2.00000
  153     -3.08897    2.00000
  154     -3.08733    2.00000
  155     -3.08636    2.00000
  156     -3.08588    2.00000
  157     -3.08424    2.00000
  158     -3.08138    2.00000
  159     -2.98830    2.00000
  160     -2.98104    2.00000
  161     -2.97384    2.00000
  162     -2.94911    2.00000
  163     -2.94290    2.00000
  164     -2.93699    2.00000
  165     -2.93218    2.00000
  166     -2.86425    1.99999
  167     -2.63123    1.99992
  168     -2.62656    1.99991
  169     -2.61765    1.99990
  170     -2.61450    1.99990
  171     -2.61432    1.99990
  172     -2.60545    1.99989
  173     -2.32841    1.99825
  174     -2.32529    1.99819
  175     -2.31925    1.99808
  176     -2.31694    1.99803
  177     -2.29429    1.99753
  178     -2.29131    1.99746
  179     -2.29067    1.99744
  180     -2.28847    1.99739
  181     -2.28701    1.99735
  182     -2.28478    1.99729
  183     -2.28336    1.99725
  184     -2.28302    1.99724
  185     -2.13840    1.98833
  186     -2.06932    1.97685
  187     -2.06609    1.97610
  188     -2.05814    1.97415
  189     -2.05730    1.97393
  190     -2.05557    1.97348
  191     -1.99642    1.95260
  192     -1.92185    1.90264
  193     -1.91982    1.90074
  194     -1.89608    1.87580
  195     -1.89230    1.87133
  196     -1.89169    1.87059
  197     -1.88869    1.86690
  198     -1.88789    1.86591
  199     -1.88625    1.86384
  200     -1.80138    1.70839
  201     -1.78919    1.67671
  202     -1.77742    1.64352
  203     -1.77647    1.64072
  204     -1.75558    1.57499
  205     -1.75527    1.57396
  206     -1.75149    1.56116
  207     -1.74902    1.55264
  208     -1.74824    1.54993
  209     -1.74660    1.54415
  210     -1.71488    1.42312
  211     -1.71184    1.41055
  212     -1.69388    1.33321
  213     -1.69230    1.32620
  214     -1.69101    1.32043
  215     -1.68912    1.31191
  216     -1.68836    1.30849
  217     -1.68757    1.30487
  218     -1.60202    0.88764
  219     -1.60090    0.88211
  220     -1.57299    0.74760
  221     -1.54979    0.64250
  222     -1.54717    0.63115
  223     -1.54241    0.61075
  224     -1.54193    0.60874
  225     -1.54081    0.60399
  226     -1.53927    0.59751
  227     -1.53818    0.59297
  228     -1.50924    0.47972
  229     -1.50519    0.46510
  230     -1.50462    0.46305
  231     -1.41430    0.21764
  232     -0.78937    0.00047
  233      0.86080    0.00000
  234      0.99172    0.00000
  235      1.10253    0.00000
  236      1.10598    0.00000
  237      1.11459    0.00000
  238      1.34588    0.00000
  239      2.81210    0.00000
  240      3.26523    0.00000
  241      3.42802    0.00000
  242      3.66813    0.00000
  243      3.81699    0.00000
  244      3.95300    0.00000
  245      3.96111    0.00000
  246      3.96698    0.00000
  247      3.96899    0.00000
  248      4.06753    0.00000
  249      4.07096    0.00000
  250      4.08532    0.00000
  251      4.37421    0.00000
  252      4.42021    0.00000
  253      4.43295    0.00000
  254      4.75116    0.00000
  255      4.87418    0.00000
  256      4.88112    0.00000
  257      5.31562    0.00000
  258      5.56963    0.00000
  259      5.96073    0.00000
  260      6.19158    0.00000
  261      6.27078    0.00000
  262      6.27616    0.00000
  263      6.31276    0.00000
  264      6.34806    0.00000

Fermi level: -1.62459

Gap: 0.086 eV
Transition (v -> c):
  (s=0, k=0, n=217, [0.00, 0.00, 0.00]) -> (s=0, k=0, n=218, [0.00, 0.00, 0.00])
No difference between direct/indirect transitions

Forces in eV/Ang:
  0 Ni    0.04948   -0.00767    0.44995
  1 Ni    0.00031    0.00312    0.53481
  2 Ni   -0.04738   -0.00396    0.45296
  3 Ni   -0.01853   -0.00891    0.47146
  4 Ni    0.02173   -0.01308    0.48099
  5 Ni   -0.00381    0.03951    0.48101
  6 Ni   -0.00195    0.00915    0.45354
  7 Ni    0.00782   -0.00316    0.54928
  8 Ni   -0.00523   -0.00248    0.55998
  9 Ni   -0.00875   -0.01748    0.08302
 10 Ni    0.03215    0.06275    0.02246
 11 Ni   -0.00929    0.04435   -0.00333
 12 Ni    0.05136   -0.01525   -0.03475
 13 Ni   -0.01139    0.02237   -0.09488
 14 Ni   -0.04965   -0.00948   -0.02422
 15 Ni    0.06164   -0.01966   -0.00340
 16 Ni   -0.06182   -0.04154    0.02418
 17 Ni    0.00303    0.00085   -0.04963
 18 Ni   -0.00326    0.01488   -0.47820
 19 Ni   -0.00760   -0.03600   -0.48155
 20 Ni    0.01292   -0.03781   -0.49631
 21 Ni   -0.06605    0.00282   -0.48324
 22 Ni   -0.00294    0.01562   -0.11575
 23 Ni    0.09623   -0.01410   -0.51952
 24 Ni   -0.18667    0.11864   -0.53470
 25 Ni    0.15463    0.12097   -0.52681
 26 Ni    0.00063   -0.00775   -0.44269
 27 H     0.57297   -0.05404    0.31862
 28 H    -0.57986   -0.16236   -0.61391

System changes: positions 

Initializing position-dependent things.

Density initialized from wave functions
                                         
                                         
                                         
                                         
                                         
                   H                     
                 H                       
                Ni    Ni    Ni           
           Ni     Ni    Ni               
                 Ni    Ni    Ni          
       Ni   NNi   NNi   Ni               
        Ni    Ni   NNi   Ni    Ni        
                                         
               Ni    Ni    Ni            
           Ni    Ni    Ni                
                                         
                                         
                                         
                                         

Positions:
   0 Ni     1.251882    0.717260   10.067313    ( 0.0000,  0.0000,  0.0000)
   1 Ni     3.733591    0.718722   10.079362    ( 0.0000,  0.0000,  0.0000)
   2 Ni     6.215420    0.717736   10.067783    ( 0.0000,  0.0000,  0.0000)
   3 Ni     2.486483    2.872883   10.070670    ( 0.0000,  0.0000,  0.0000)
   4 Ni     4.980999    2.872308   10.071905    ( 0.0000,  0.0000,  0.0000)
   5 Ni     7.466541    2.880109   10.071655    ( 0.0000,  0.0000,  0.0000)
   6 Ni     3.733249    5.030724   10.068158    ( 0.0000,  0.0000,  0.0000)
   7 Ni     6.223901    5.029215   10.081502    ( 0.0000,  0.0000,  0.0000)
   8 Ni     8.710546    5.029330   10.082909    ( 0.0000,  0.0000,  0.0000)
   9 Ni    -0.001247    1.434738   12.044234    ( 0.0000,  0.0000,  0.0000)
  10 Ni     2.493314    1.446193   12.034954    ( 0.0000,  0.0000,  0.0000)
  11 Ni     4.976854    1.443652   12.031462    ( 0.0000,  0.0000,  0.0000)
  12 Ni     1.252272    3.590513   12.027405    ( 0.0000,  0.0000,  0.0000)
  13 Ni     3.731930    3.596506   12.017730    ( 0.0000,  0.0000,  0.0000)
  14 Ni     6.215081    3.591229   12.028791    ( 0.0000,  0.0000,  0.0000)
  15 Ni     2.498081    5.744409   12.031872    ( 0.0000,  0.0000,  0.0000)
  16 Ni     4.968879    5.741462   12.035607    ( 0.0000,  0.0000,  0.0000)
  17 Ni     7.467494    5.748128   12.024887    ( 0.0000,  0.0000,  0.0000)
  18 Ni    -0.000447    0.002428   13.993118    ( 0.0000,  0.0000,  0.0000)
  19 Ni     2.487802   -0.005685   13.993047    ( 0.0000,  0.0000,  0.0000)
  20 Ni     4.979967   -0.005983   13.991025    ( 0.0000,  0.0000,  0.0000)
  21 Ni     1.233810    2.155592   13.991930    ( 0.0000,  0.0000,  0.0000)
  22 Ni     3.733391    2.154953   14.040935    ( 0.0000,  0.0000,  0.0000)
  23 Ni     6.237385    2.153283   13.987008    ( 0.0000,  0.0000,  0.0000)
  24 Ni     2.460604    4.330324   13.982501    ( 0.0000,  0.0000,  0.0000)
  25 Ni     5.001787    4.330251   13.984182    ( 0.0000,  0.0000,  0.0000)
  26 Ni     7.467181    4.310168   13.998301    ( 0.0000,  0.0000,  0.0000)
  27 H      3.419198    3.225889   15.769487    ( 0.0000,  0.0000,  0.0000)
  28 H      4.046810    3.210163   16.238826    ( 0.0000,  0.0000,  0.0000)

Unit cell:
           periodic     x           y           z      points  spacing
  1. axis:    yes    7.467048    0.000000    0.000000    30     0.2156
  2. axis:    yes    3.733524    6.466653    0.000000    30     0.2156
  3. axis:    no     0.000000    0.000000   24.064546    98     0.2456

  Lengths:   7.467048   7.467048  24.064546
  Angles:   90.000000  90.000000  60.000000

Effective grid spacing dv^(1/3) = 0.2362

     iter     time        total  log10-change:
                         energy   eigst   dens
iter:   1 16:05:35  -205.501593   -0.73
iter:   2 16:05:38  -199.159855   -0.69  -1.48
iter:   3 16:05:41  -181.610668   -1.69  -1.91
iter:   4 16:05:44  -196.196758   -1.77  -1.99
iter:   5 16:05:46  -183.125629   -2.22  -1.75
iter:   6 16:05:49  -179.792466   -2.21  -1.94
iter:   7 16:05:52  -181.060134   -2.52  -2.24
iter:   8 16:05:55  -179.906161   -2.70  -2.11
iter:   9 16:06:01  -180.217593   -2.85  -2.24
iter:  10 16:06:04  -179.342273   -2.92  -2.19
iter:  11 16:06:07  -180.299660   -2.94  -2.35
iter:  12 16:06:09  -179.180236   -3.12  -2.19
iter:  13 16:06:12  -179.120041   -3.40  -2.48
iter:  14 16:06:15  -178.966033c  -3.49  -2.55
iter:  15 16:06:18  -179.071567c  -3.38  -2.65
iter:  16 16:06:20  -178.886000c  -3.67  -2.50
iter:  17 16:06:23  -178.843846   -4.26  -2.72
iter:  18 16:06:26  -178.930101c  -3.87  -2.81
iter:  19 16:06:29  -178.844490c  -4.04  -2.64
iter:  20 16:06:31  -178.807316c  -4.39  -2.81
iter:  21 16:06:38  -178.805863c  -4.42  -2.93
iter:  22 16:06:41  -178.999171c  -3.80  -2.98
iter:  23 16:06:43  -178.791622c  -3.97  -2.56
iter:  24 16:06:46  -178.785458c  -4.57  -3.03
iter:  25 16:06:49  -178.908574c  -4.09  -3.10
iter:  26 16:06:52  -178.771520c  -4.29  -2.67
iter:  27 16:06:54  -178.766034c  -5.05  -3.21
iter:  28 16:06:57  -178.769020c  -5.42  -3.25
iter:  29 16:07:00  -178.772688c  -5.01  -3.30
iter:  30 16:07:03  -178.761912c  -5.37  -3.16
iter:  31 16:07:06  -178.777766c  -5.26  -3.34
iter:  32 16:07:08  -178.765889c  -4.88  -3.16
iter:  33 16:07:15  -178.769826c  -4.83  -3.31
iter:  34 16:07:17  -178.760452c  -5.15  -3.25
iter:  35 16:07:20  -178.768907c  -4.98  -3.38
iter:  36 16:07:23  -178.762934c  -5.11  -3.26
iter:  37 16:07:26  -178.759705c  -5.88  -3.54
iter:  38 16:07:29  -178.761244c  -5.78  -3.55
iter:  39 16:07:31  -178.761702c  -5.57  -3.58
iter:  40 16:07:34  -178.760904c  -5.89  -3.52
iter:  41 16:07:37  -178.759948c  -5.89  -3.69
iter:  42 16:07:40  -178.758392c  -5.43  -3.63
iter:  43 16:07:42  -178.760660c  -5.70  -3.61
iter:  44 16:07:49  -178.759278c  -6.01  -3.72
iter:  45 16:07:51  -178.759846c  -5.95  -3.76
iter:  46 16:07:54  -178.758399c  -6.28  -3.72
iter:  47 16:07:57  -178.758612c  -7.28  -3.87
iter:  48 16:08:00  -178.759775c  -6.56  -3.94
iter:  49 16:08:04  -178.757842c  -6.33  -3.87
iter:  50 16:08:07  -178.759375c  -6.25  -3.92
iter:  51 16:08:09  -178.759368c  -6.08  -3.79
iter:  52 16:08:12  -178.760981c  -5.88  -3.86
iter:  53 16:08:15  -178.758837c  -6.34  -3.66
iter:  54 16:08:18  -178.758264c  -6.59  -4.03c
iter:  55 16:08:20  -178.759300c  -6.69  -4.02c
iter:  56 16:08:27  -178.758964c  -7.04  -4.11c
iter:  57 16:08:29  -178.758944c  -7.20  -4.10c
iter:  58 16:08:32  -178.759341c  -6.21  -4.20c
iter:  59 16:08:35  -178.759030c  -6.37  -3.71
iter:  60 16:08:38  -178.759261c  -6.76  -4.15c
iter:  61 16:08:40  -178.758280c  -6.57  -4.27c
iter:  62 16:08:43  -178.758654c  -6.79  -4.05c
iter:  63 16:08:46  -178.758627c  -7.28  -4.25c
iter:  64 16:08:49  -178.758812c  -7.56c -4.45c

Converged after 64 iterations.

Dipole moment: (0.932583, -0.163590, 0.196722) |e|*Ang

Energy contributions relative to reference atoms: (reference = -1116960.938401)

Kinetic:       +283.023550
Potential:     -228.464341
External:        +0.000000
XC:            -236.212038
Entropy (-ST):   -3.864257
Local:           +4.826146
SIC:             +0.000000
--------------------------
Free energy:   -180.690940
Extrapolated:  -178.758812

 Band  Eigenvalues  Occupancy
    0    -65.36133    2.00000
    1    -65.34573    2.00000
    2    -65.34513    2.00000
    3    -65.34145    2.00000
    4    -65.33852    2.00000
    5    -65.32572    2.00000
    6    -65.31656    2.00000
    7    -65.31394    2.00000
    8    -65.30489    2.00000
    9    -65.04168    2.00000
   10    -65.03360    2.00000
   11    -65.03057    2.00000
   12    -65.02794    2.00000
   13    -65.02515    2.00000
   14    -65.02309    2.00000
   15    -65.01536    2.00000
   16    -65.01409    2.00000
   17    -65.01217    2.00000
   18    -65.00988    2.00000
   19    -64.93604    2.00000
   20    -64.92914    2.00000
   21    -64.92780    2.00000
   22    -64.92646    2.00000
   23    -64.92460    2.00000
   24    -64.92206    2.00000
   25    -64.89555    2.00000
   26    -64.89248    2.00000
   27    -64.82259    2.00000
   28    -64.81813    2.00000
   29    -64.81260    2.00000
   30    -64.81164    2.00000
   31    -64.81066    2.00000
   32    -64.80957    2.00000
   33    -64.80641    2.00000
   34    -64.80441    2.00000
   35    -64.80404    2.00000
   36    -64.80183    2.00000
   37    -64.80140    2.00000
   38    -64.79620    2.00000
   39    -64.79525    2.00000
   40    -64.79279    2.00000
   41    -64.79082    2.00000
   42    -64.78784    2.00000
   43    -64.78509    2.00000
   44    -64.78297    2.00000
   45    -64.77258    2.00000
   46    -64.76550    2.00000
   47    -64.75530    2.00000
   48    -64.74445    2.00000
   49    -64.74135    2.00000
   50    -64.73985    2.00000
   51    -64.73728    2.00000
   52    -64.73514    2.00000
   53    -64.73282    2.00000
   54    -64.73118    2.00000
   55    -64.72937    2.00000
   56    -64.72466    2.00000
   57    -64.72390    2.00000
   58    -64.72239    2.00000
   59    -64.72106    2.00000
   60    -64.71841    2.00000
   61    -64.71807    2.00000
   62    -64.71653    2.00000
   63    -64.71518    2.00000
   64    -64.71484    2.00000
   65    -64.71423    2.00000
   66    -64.71293    2.00000
   67    -64.71173    2.00000
   68    -64.70904    2.00000
   69    -64.70846    2.00000
   70    -64.70790    2.00000
   71    -64.70702    2.00000
   72    -64.70517    2.00000
   73    -64.70395    2.00000
   74    -64.70373    2.00000
   75    -64.69165    2.00000
   76    -64.68705    2.00000
   77    -64.68017    2.00000
   78    -64.67995    2.00000
   79    -64.66584    2.00000
   80    -64.65325    2.00000
   81     -9.87000    2.00000
   82     -8.78621    2.00000
   83     -7.50295    2.00000
   84     -6.77208    2.00000
   85     -6.76202    2.00000
   86     -6.75445    2.00000
   87     -6.74386    2.00000
   88     -6.73469    2.00000
   89     -6.70556    2.00000
   90     -6.13497    2.00000
   91     -5.65553    2.00000
   92     -5.65231    2.00000
   93     -5.65114    2.00000
   94     -5.64330    2.00000
   95     -5.63500    2.00000
   96     -5.59221    2.00000
   97     -4.94097    2.00000
   98     -4.93962    2.00000
   99     -4.93038    2.00000
  100     -4.92996    2.00000
  101     -4.92051    2.00000
  102     -4.91636    2.00000
  103     -4.81009    2.00000
  104     -4.80169    2.00000
  105     -4.78199    2.00000
  106     -4.77787    2.00000
  107     -4.77158    2.00000
  108     -4.76639    2.00000
  109     -4.56886    2.00000
  110     -4.56342    2.00000
  111     -4.55639    2.00000
  112     -4.54679    2.00000
  113     -4.53606    2.00000
  114     -4.52021    2.00000
  115     -4.44410    2.00000
  116     -4.43824    2.00000
  117     -4.43586    2.00000
  118     -4.42053    2.00000
  119     -4.13684    2.00000
  120     -4.13178    2.00000
  121     -4.11722    2.00000
  122     -4.11586    2.00000
  123     -4.10877    2.00000
  124     -4.10181    2.00000
  125     -3.62621    2.00000
  126     -3.62331    2.00000
  127     -3.57410    2.00000
  128     -3.56382    2.00000
  129     -3.56183    2.00000
  130     -3.55751    2.00000
  131     -3.55415    2.00000
  132     -3.53057    2.00000
  133     -3.44219    2.00000
  134     -3.41731    2.00000
  135     -3.35131    2.00000
  136     -3.35110    2.00000
  137     -3.29636    2.00000
  138     -3.26651    2.00000
  139     -3.25007    2.00000
  140     -3.24813    2.00000
  141     -3.24610    2.00000
  142     -3.24080    2.00000
  143     -3.23960    2.00000
  144     -3.23172    2.00000
  145     -3.23029    2.00000
  146     -3.22289    2.00000
  147     -3.21311    2.00000
  148     -3.20962    2.00000
  149     -3.20440    2.00000
  150     -3.20023    2.00000
  151     -3.19211    2.00000
  152     -3.19191    2.00000
  153     -3.18210    2.00000
  154     -3.17458    2.00000
  155     -3.17338    2.00000
  156     -3.17182    2.00000
  157     -3.17078    2.00000
  158     -3.14276    2.00000
  159     -2.99773    2.00000
  160     -2.97719    2.00000
  161     -2.97342    2.00000
  162     -2.96541    2.00000
  163     -2.95654    2.00000
  164     -2.95093    2.00000
  165     -2.93974    2.00000
  166     -2.87883    1.99999
  167     -2.65241    1.99995
  168     -2.64453    1.99995
  169     -2.63227    1.99994
  170     -2.63026    1.99994
  171     -2.61775    1.99993
  172     -2.61164    1.99992
  173     -2.35097    1.99897
  174     -2.34830    1.99894
  175     -2.34555    1.99891
  176     -2.33536    1.99879
  177     -2.33177    1.99875
  178     -2.32680    1.99868
  179     -2.30204    1.99831
  180     -2.29816    1.99825
  181     -2.27387    1.99776
  182     -2.27026    1.99768
  183     -2.26326    1.99751
  184     -2.25693    1.99735
  185     -2.13698    1.99124
  186     -2.04045    1.97717
  187     -2.03898    1.97684
  188     -2.02875    1.97437
  189     -2.02774    1.97412
  190     -2.02190    1.97258
  191     -1.96757    1.95325
  192     -1.94314    1.94070
  193     -1.94106    1.93949
  194     -1.91887    1.92502
  195     -1.90285    1.91256
  196     -1.90090    1.91092
  197     -1.89798    1.90840
  198     -1.89571    1.90640
  199     -1.89420    1.90504
  200     -1.77268    1.71228
  201     -1.76703    1.69808
  202     -1.75823    1.67483
  203     -1.75434    1.66409
  204     -1.75330    1.66117
  205     -1.74635    1.64116
  206     -1.74487    1.63677
  207     -1.74056    1.62380
  208     -1.73389    1.60299
  209     -1.72584    1.57678
  210     -1.69073    1.44790
  211     -1.68801    1.43694
  212     -1.67652    1.38930
  213     -1.67500    1.38284
  214     -1.66845    1.35456
  215     -1.66491    1.33898
  216     -1.66092    1.32123
  217     -1.65452    1.29225
  218     -1.56576    0.85819
  219     -1.56319    0.84560
  220     -1.52540    0.66842
  221     -1.50152    0.56666
  222     -1.49695    0.54828
  223     -1.49209    0.52915
  224     -1.48988    0.52059
  225     -1.48488    0.50157
  226     -1.48421    0.49907
  227     -1.48179    0.49005
  228     -1.46511    0.43098
  229     -1.45499    0.39775
  230     -1.44798    0.37589
  231     -1.35272    0.16392
  232     -0.72663    0.00034
  233      1.00817    0.00000
  234      1.11233    0.00000
  235      1.22650    0.00000
  236      1.23209    0.00000
  237      1.24923    0.00000
  238      1.46805    0.00000
  239      2.85471    0.00000
  240      3.27739    0.00000
  241      3.53006    0.00000
  242      3.68329    0.00000
  243      3.88391    0.00000
  244      3.93408    0.00000
  245      3.93612    0.00000
  246      3.94343    0.00000
  247      3.95572    0.00000
  248      4.17458    0.00000
  249      4.17703    0.00000
  250      4.19019    0.00000
  251      4.38023    0.00000
  252      4.39711    0.00000
  253      4.45498    0.00000
  254      4.79276    0.00000
  255      4.87631    0.00000
  256      4.90750    0.00000
  257      5.35317    0.00000
  258      5.66350    0.00000
  259      6.01758    0.00000
  260      6.22634    0.00000
  261      6.31578    0.00000
  262      6.32185    0.00000
  263      6.35489    0.00000
  264      6.41651    0.00000

Fermi level: -1.59432

Gap: 0.089 eV
Transition (v -> c):
  (s=0, k=0, n=217, [0.00, 0.00, 0.00]) -> (s=0, k=0, n=218, [0.00, 0.00, 0.00])
No difference between direct/indirect transitions

Forces in eV/Ang:
  0 Ni    0.00643    0.00170    0.18167
  1 Ni   -0.00650    0.01908    0.19711
  2 Ni    0.00236    0.00781    0.15922
  3 Ni   -0.03589   -0.02638    0.12329
  4 Ni    0.03708   -0.02185    0.12964
  5 Ni   -0.00361   -0.01289    0.19041
  6 Ni    0.00423    0.04443    0.09765
  7 Ni   -0.02569   -0.00069    0.20736
  8 Ni    0.02481   -0.00531    0.21089
  9 Ni    0.01949   -0.01686   -0.00893
 10 Ni    0.06256    0.02936    0.10656
 11 Ni   -0.06673    0.03806    0.09655
 12 Ni   -0.03936   -0.03817   -0.01188
 13 Ni    0.00439   -0.06456    0.09214
 14 Ni    0.02455   -0.02210   -0.00586
 15 Ni    0.01898    0.06609    0.00848
 16 Ni   -0.00598    0.06726    0.00765
 17 Ni   -0.00788    0.00639    0.01915
 18 Ni    0.00168   -0.02629   -0.13416
 19 Ni    0.01836    0.04724   -0.21029
 20 Ni   -0.01745    0.05579   -0.21080
 21 Ni    0.06918    0.02039   -0.18054
 22 Ni    0.01021    0.09045    0.00230
 23 Ni   -0.06033    0.01657   -0.18917
 24 Ni   -0.05497   -0.00681   -0.25514
 25 Ni    0.04302   -0.00945   -0.25453
 26 Ni   -0.00901   -0.01686   -0.15752
 27 H    -0.22082   -0.05061   -0.19653
 28 H     0.20807   -0.19030    0.04781

System changes: positions 

Initializing position-dependent things.

Density initialized from wave functions
                                         
                                         
                                         
                                         
                                         
                   H                     
                 H                       
                Ni    Ni    Ni           
           Ni     Ni    Ni               
                 Ni    Ni    Ni          
       Ni   NNi   NNi   Ni               
        Ni    Ni   NNi   Ni    Ni        
                                         
               Ni    Ni    Ni            
           Ni    Ni    Ni                
                                         
                                         
                                         
                                         

Positions:
   0 Ni     1.253050    0.717109   10.079573    ( 0.0000,  0.0000,  0.0000)
   1 Ni     3.733500    0.718995   10.093554    ( 0.0000,  0.0000,  0.0000)
   2 Ni     6.214423    0.717724   10.079812    ( 0.0000,  0.0000,  0.0000)
   3 Ni     2.485637    2.872367   10.082603    ( 0.0000,  0.0000,  0.0000)
   4 Ni     4.981908    2.871773   10.084095    ( 0.0000,  0.0000,  0.0000)
   5 Ni     7.466436    2.880824   10.084651    ( 0.0000,  0.0000,  0.0000)
   6 Ni     3.733261    5.031463   10.079407    ( 0.0000,  0.0000,  0.0000)
   7 Ni     6.223771    5.029158   10.096143    ( 0.0000,  0.0000,  0.0000)
   8 Ni     8.710721    5.029211   10.097802    ( 0.0000,  0.0000,  0.0000)
   9 Ni    -0.001156    1.434164   12.045791    ( 0.0000,  0.0000,  0.0000)
  10 Ni     2.494744    1.447901   12.036717    ( 0.0000,  0.0000,  0.0000)
  11 Ni     4.975821    1.445078   12.032561    ( 0.0000,  0.0000,  0.0000)
  12 Ni     1.252894    3.589718   12.026492    ( 0.0000,  0.0000,  0.0000)
  13 Ni     3.731721    3.596238   12.016796    ( 0.0000,  0.0000,  0.0000)
  14 Ni     6.214335    3.590771   12.028165    ( 0.0000,  0.0000,  0.0000)
  15 Ni     2.499639    5.744751   12.031853    ( 0.0000,  0.0000,  0.0000)
  16 Ni     4.967483    5.741397   12.036146    ( 0.0000,  0.0000,  0.0000)
  17 Ni     7.467452    5.748208   12.024052    ( 0.0000,  0.0000,  0.0000)
  18 Ni    -0.000471    0.002443   13.980891    ( 0.0000,  0.0000,  0.0000)
  19 Ni     2.487870   -0.005898   13.979796    ( 0.0000,  0.0000,  0.0000)
  20 Ni     4.979996   -0.006149   13.977454    ( 0.0000,  0.0000,  0.0000)
  21 Ni     1.233204    2.155883   13.979004    ( 0.0000,  0.0000,  0.0000)
  22 Ni     3.733451    2.156249   14.038009    ( 0.0000,  0.0000,  0.0000)
  23 Ni     6.238763    2.153185   13.973232    ( 0.0000,  0.0000,  0.0000)
  24 Ni     2.455853    4.332863   13.967545    ( 0.0000,  0.0000,  0.0000)
  25 Ni     5.005679    4.332787   13.969485    ( 0.0000,  0.0000,  0.0000)
  26 Ni     7.467092    4.309826   13.986500    ( 0.0000,  0.0000,  0.0000)
  27 H      3.421637    3.224157   15.770799    ( 0.0000,  0.0000,  0.0000)
  28 H      4.044017    3.204307   16.236822    ( 0.0000,  0.0000,  0.0000)

Unit cell:
           periodic     x           y           z      points  spacing
  1. axis:    yes    7.467048    0.000000    0.000000    30     0.2156
  2. axis:    yes    3.733524    6.466653    0.000000    30     0.2156
  3. axis:    no     0.000000    0.000000   24.064546    98     0.2456

  Lengths:   7.467048   7.467048  24.064546
  Angles:   90.000000  90.000000  60.000000

Effective grid spacing dv^(1/3) = 0.2362

     iter     time        total  log10-change:
                         energy   eigst   dens
iter:   1 16:14:07  -181.298496   -2.03
iter:   2 16:14:09  -212.380405   -1.65  -2.06
iter:   3 16:14:12  -179.136130   -1.97  -1.66
iter:   4 16:14:15  -179.828815   -2.61  -2.56
iter:   5 16:14:18  -179.728280   -3.17  -2.33
iter:   6 16:14:24  -179.007569   -3.57  -2.31
iter:   7 16:14:27  -179.106464   -3.88  -2.64
iter:   8 16:14:30  -179.034644c  -3.71  -2.52
iter:   9 16:14:32  -178.918840c  -4.58  -2.62
iter:  10 16:14:35  -178.884459c  -4.13  -2.80
iter:  11 16:14:38  -178.878146c  -3.90  -2.96
iter:  12 16:14:41  -178.931378c  -3.85  -2.98
iter:  13 16:14:43  -178.847173c  -4.30  -2.79
iter:  14 16:14:46  -178.837823c  -5.12  -3.22
iter:  15 16:14:49  -178.832333c  -5.28  -3.42
iter:  16 16:14:52  -178.834725c  -5.44  -3.51
iter:  17 16:14:55  -178.833074c  -5.75  -3.51
iter:  18 16:15:01  -178.831786c  -5.82  -3.55
iter:  19 16:15:04  -178.831308c  -5.08  -3.62
iter:  20 16:15:07  -178.836945c  -5.16  -3.47
iter:  21 16:15:09  -178.829901c  -5.72  -3.29
iter:  22 16:15:12  -178.827436c  -5.59  -3.77
iter:  23 16:15:15  -178.828380c  -5.76  -3.69
iter:  24 16:15:18  -178.828484c  -6.37  -3.82
iter:  25 16:15:20  -178.828101c  -6.77  -3.84
iter:  26 16:15:23  -178.833540c  -5.61  -3.90
iter:  27 16:15:26  -178.827320c  -5.72  -3.39
iter:  28 16:15:29  -178.827881c  -6.35  -3.90
iter:  29 16:15:35  -178.827190c  -6.19  -4.08c
iter:  30 16:15:38  -178.826588c  -6.04  -3.93
iter:  31 16:15:41  -178.826751c  -6.38  -3.90
iter:  32 16:15:43  -178.827088c  -6.80  -4.21c
iter:  33 16:15:46  -178.827002c  -6.81  -3.97
iter:  34 16:15:49  -178.826777c  -7.78c -4.24c

Converged after 34 iterations.

Dipole moment: (1.149844, -0.148724, 0.194852) |e|*Ang

Energy contributions relative to reference atoms: (reference = -1116960.938401)

Kinetic:       +288.189072
Potential:     -232.404843
External:        +0.000000
XC:            -237.535183
Entropy (-ST):   -3.792651
Local:           +4.820503
SIC:             +0.000000
--------------------------
Free energy:   -180.723102
Extrapolated:  -178.826777

 Band  Eigenvalues  Occupancy
    0    -65.38576    2.00000
    1    -65.37111    2.00000
    2    -65.36949    2.00000
    3    -65.36462    2.00000
    4    -65.36295    2.00000
    5    -65.34590    2.00000
    6    -65.33610    2.00000
    7    -65.33584    2.00000
    8    -65.32312    2.00000
    9    -65.05241    2.00000
   10    -65.04268    2.00000
   11    -65.03940    2.00000
   12    -65.03719    2.00000
   13    -65.03408    2.00000
   14    -65.03201    2.00000
   15    -65.02364    2.00000
   16    -65.02177    2.00000
   17    -65.01958    2.00000
   18    -65.01799    2.00000
   19    -64.94491    2.00000
   20    -64.93722    2.00000
   21    -64.93580    2.00000
   22    -64.93447    2.00000
   23    -64.93176    2.00000
   24    -64.92970    2.00000
   25    -64.90318    2.00000
   26    -64.89976    2.00000
   27    -64.82564    2.00000
   28    -64.81910    2.00000
   29    -64.81240    2.00000
   30    -64.81133    2.00000
   31    -64.80914    2.00000
   32    -64.80844    2.00000
   33    -64.80625    2.00000
   34    -64.80392    2.00000
   35    -64.80133    2.00000
   36    -64.79908    2.00000
   37    -64.79788    2.00000
   38    -64.79509    2.00000
   39    -64.79411    2.00000
   40    -64.79028    2.00000
   41    -64.78912    2.00000
   42    -64.78332    2.00000
   43    -64.78277    2.00000
   44    -64.78000    2.00000
   45    -64.76985    2.00000
   46    -64.76460    2.00000
   47    -64.76110    2.00000
   48    -64.75292    2.00000
   49    -64.75074    2.00000
   50    -64.74858    2.00000
   51    -64.74418    2.00000
   52    -64.74325    2.00000
   53    -64.74090    2.00000
   54    -64.73813    2.00000
   55    -64.73426    2.00000
   56    -64.73081    2.00000
   57    -64.73017    2.00000
   58    -64.72721    2.00000
   59    -64.72437    2.00000
   60    -64.72110    2.00000
   61    -64.71977    2.00000
   62    -64.71696    2.00000
   63    -64.71626    2.00000
   64    -64.71616    2.00000
   65    -64.71410    2.00000
   66    -64.71387    2.00000
   67    -64.71269    2.00000
   68    -64.71197    2.00000
   69    -64.71040    2.00000
   70    -64.70862    2.00000
   71    -64.70486    2.00000
   72    -64.70453    2.00000
   73    -64.70320    2.00000
   74    -64.70032    2.00000
   75    -64.68993    2.00000
   76    -64.68549    2.00000
   77    -64.67666    2.00000
   78    -64.67619    2.00000
   79    -64.65807    2.00000
   80    -64.64380    2.00000
   81     -9.89856    2.00000
   82     -8.78457    2.00000
   83     -7.51232    2.00000
   84     -6.80772    2.00000
   85     -6.79675    2.00000
   86     -6.78815    2.00000
   87     -6.77604    2.00000
   88     -6.76615    2.00000
   89     -6.73548    2.00000
   90     -6.15208    2.00000
   91     -5.68035    2.00000
   92     -5.67482    2.00000
   93     -5.67376    2.00000
   94     -5.66607    2.00000
   95     -5.65630    2.00000
   96     -5.61393    2.00000
[...]
  9 Ni    0.01605    0.00168    0.02655
 10 Ni    0.07963    0.02503    0.14773
 11 Ni    0.02628    0.01779    0.01873
 12 Ni    0.02748   -0.03073    0.03222
 13 Ni    0.01564    0.01333    0.08040
 14 Ni   -0.00270    0.00064   -0.00102
 15 Ni   -0.00562   -0.00124    0.04135
 16 Ni    0.02412    0.03304    0.03761
 17 Ni   -0.01100   -0.00012   -0.03810
 18 Ni    0.00320    0.01034    0.01507
 19 Ni    0.06171   -0.00790    0.04830
 20 Ni   -0.07405    0.03724   -0.02527
 21 Ni   -0.06759   -0.00518    0.03007
 22 Ni   -0.06198    0.17396    0.35889
 23 Ni   -0.02567    0.00246   -0.02174
 24 Ni   -0.03685    0.03516    0.04467
 25 Ni    0.00548    0.02531    0.06073
 26 Ni   -0.00159    0.04424    0.02758
 27 H    -0.03788    0.02492   -0.28943
 28 H     0.02694   -0.35904   -0.65004

System changes: positions 

Initializing position-dependent things.

Density initialized from wave functions
                                         
                                         
                                         
                                         
                                         
                                         
                  H                      
               Ni     Ni                 
                  Ni        Ni           
            Ni   Ni    Ni    Ni          
       Ni    Ni    NNi   Ni              
        Ni  Ni                           
              Ni   NNi    Ni    Ni       
               Ni    Ni    Ni            
           Ni                            
                Ni     Ni                
                                         
                                         
                                         
                                         

Positions:
   0 Ni     1.268104    0.922827   10.110637    ( 0.0000,  0.0000,  0.0000)
   1 Ni     3.623019    0.641043   10.064807    ( 0.0000,  0.0000,  0.0000)
   2 Ni     6.377328    0.669836   10.051264    ( 0.0000,  0.0000,  0.0000)
   3 Ni     2.679196    2.809787   10.143256    ( 0.0000,  0.0000,  0.0000)
   4 Ni     5.006114    3.004658   10.000664    ( 0.0000,  0.0000,  0.0000)
   5 Ni     7.373739    2.843848   10.032068    ( 0.0000,  0.0000,  0.0000)
   6 Ni     3.645836    4.949993   10.072670    ( 0.0000,  0.0000,  0.0000)
   7 Ni     6.296119    5.010592   10.040914    ( 0.0000,  0.0000,  0.0000)
   8 Ni     8.701453    5.172411   10.098583    ( 0.0000,  0.0000,  0.0000)
   9 Ni    -0.009251    1.444983   12.228777    ( 0.0000,  0.0000,  0.0000)
  10 Ni     2.590610    1.477503   12.177773    ( 0.0000,  0.0000,  0.0000)
  11 Ni     4.967572    1.475239   11.775686    ( 0.0000,  0.0000,  0.0000)
  12 Ni     1.248965    3.577790   11.809138    ( 0.0000,  0.0000,  0.0000)
  13 Ni     3.751522    3.582874   12.316354    ( 0.0000,  0.0000,  0.0000)
  14 Ni     6.221674    3.620069   11.981752    ( 0.0000,  0.0000,  0.0000)
  15 Ni     2.500702    5.769563   12.023629    ( 0.0000,  0.0000,  0.0000)
  16 Ni     4.972230    5.798334   11.831424    ( 0.0000,  0.0000,  0.0000)
  17 Ni     7.461358    5.729124   12.197898    ( 0.0000,  0.0000,  0.0000)
  18 Ni    -0.000950   -0.141601   13.979709    ( 0.0000,  0.0000,  0.0000)
  19 Ni     2.440760    0.074618   14.025235    ( 0.0000,  0.0000,  0.0000)
  20 Ni     5.026255    0.182946   13.914052    ( 0.0000,  0.0000,  0.0000)
  21 Ni     1.287015    2.239923   13.986513    ( 0.0000,  0.0000,  0.0000)
  22 Ni     3.670011    2.268335   14.461750    ( 0.0000,  0.0000,  0.0000)
  23 Ni     6.064746    2.257423   13.929683    ( 0.0000,  0.0000,  0.0000)
  24 Ni     2.277255    4.414904   13.972091    ( 0.0000,  0.0000,  0.0000)
  25 Ni     5.134289    4.441566   13.980015    ( 0.0000,  0.0000,  0.0000)
  26 Ni     7.441824    4.223635   14.012291    ( 0.0000,  0.0000,  0.0000)
  27 H      3.624323    3.158197   15.913571    ( 0.0000,  0.0000,  0.0000)
  28 H      3.823024    2.438274   16.278942    ( 0.0000,  0.0000,  0.0000)

Unit cell:
           periodic     x           y           z      points  spacing
  1. axis:    yes    7.467048    0.000000    0.000000    30     0.2156
  2. axis:    yes    3.733524    6.466653    0.000000    30     0.2156
  3. axis:    no     0.000000    0.000000   24.064546    98     0.2456

  Lengths:   7.467048   7.467048  24.064546
  Angles:   90.000000  90.000000  60.000000

Effective grid spacing dv^(1/3) = 0.2362

     iter     time        total  log10-change:
                         energy   eigst   dens
iter:   1 21:54:23  -180.674738   -3.36
iter:   2 21:54:25  -203.447632   -1.79  -2.42
iter:   3 21:54:28  -182.765589   -2.39  -1.70
iter:   4 21:54:31  -180.181085   -2.93  -2.18
iter:   5 21:54:34  -180.023282   -3.67  -2.73
iter:   6 21:54:37  -180.020611c  -4.73  -3.50
iter:   7 21:54:40  -180.020073c  -5.50  -3.57
iter:   8 21:54:43  -180.019685c  -5.12  -3.62
iter:   9 21:54:48  -180.017176c  -5.55  -3.71
iter:  10 21:54:51  -180.015630c  -5.80  -3.90
iter:  11 21:54:54  -180.015226c  -6.41  -4.14c
iter:  12 21:54:57  -180.015141c  -6.77  -4.03c
iter:  13 21:55:00  -180.015392c  -6.57  -4.21c
iter:  14 21:55:03  -180.015059c  -6.61  -4.21c
iter:  15 21:55:06  -180.014832c  -6.91  -4.05c
iter:  16 21:55:09  -180.014779c  -6.92  -4.36c
iter:  17 21:55:11  -180.014805c  -6.97  -4.39c
iter:  18 21:55:14  -180.014626c  -7.07  -4.25c
iter:  19 21:55:17  -180.014610c  -7.37  -4.48c
iter:  20 21:55:23  -180.014556c  -7.29  -4.54c
iter:  21 21:55:26  -180.014558c  -7.26  -4.41c
iter:  22 21:55:29  -180.014481c  -7.42c -4.62c

Converged after 22 iterations.

Dipole moment: (3.174030, -1.862285, 0.242399) |e|*Ang

Energy contributions relative to reference atoms: (reference = -1116960.938401)

Kinetic:       +275.612876
Potential:     -222.737181
External:        +0.000000
XC:            -236.213306
Entropy (-ST):   -3.045656
Local:           +4.845958
SIC:             +0.000000
--------------------------
Free energy:   -181.537309
Extrapolated:  -180.014481

 Band  Eigenvalues  Occupancy
    0    -65.43237    2.00000
    1    -65.41119    2.00000
    2    -65.34960    2.00000
    3    -65.34140    2.00000
    4    -65.33428    2.00000
    5    -65.32062    2.00000
    6    -65.31295    2.00000
    7    -65.30031    2.00000
    8    -65.20360    2.00000
    9    -65.14424    2.00000
   10    -65.13214    2.00000
   11    -65.12884    2.00000
   12    -65.12270    2.00000
   13    -65.11337    2.00000
   14    -65.11235    2.00000
   15    -65.10490    2.00000
   16    -65.09323    2.00000
   17    -65.08607    2.00000
   18    -65.07649    2.00000
   19    -65.06986    2.00000
   20    -65.06268    2.00000
   21    -65.05399    2.00000
   22    -65.05101    2.00000
   23    -65.04679    2.00000
   24    -65.04448    2.00000
   25    -65.03987    2.00000
   26    -65.02558    2.00000
   27    -65.01489    2.00000
   28    -65.01133    2.00000
   29    -65.00535    2.00000
   30    -65.00376    2.00000
   31    -64.99637    2.00000
   32    -64.99036    2.00000
   33    -64.98488    2.00000
   34    -64.97962    2.00000
   35    -64.97561    2.00000
   36    -64.96910    2.00000
   37    -64.96557    2.00000
   38    -64.96251    2.00000
   39    -64.96142    2.00000
   40    -64.95241    2.00000
   41    -64.94266    2.00000
   42    -64.94129    2.00000
   43    -64.93193    2.00000
   44    -64.92724    2.00000
   45    -64.91495    2.00000
   46    -64.91198    2.00000
   47    -64.91134    2.00000
   48    -64.90817    2.00000
   49    -64.90377    2.00000
   50    -64.89644    2.00000
   51    -64.89500    2.00000
   52    -64.89259    2.00000
   53    -64.88838    2.00000
   54    -64.88648    2.00000
   55    -64.88145    2.00000
   56    -64.86960    2.00000
   57    -64.85648    2.00000
   58    -64.85123    2.00000
   59    -64.84536    2.00000
   60    -64.81953    2.00000
   61    -64.78953    2.00000
   62    -64.74699    2.00000
   63    -64.73585    2.00000
   64    -64.72849    2.00000
   65    -64.72703    2.00000
   66    -64.71568    2.00000
   67    -64.71492    2.00000
   68    -64.70678    2.00000
   69    -64.70227    2.00000
   70    -64.69919    2.00000
   71    -64.68625    2.00000
   72    -64.68400    2.00000
   73    -64.68158    2.00000
   74    -64.66988    2.00000
   75    -64.66089    2.00000
   76    -64.65936    2.00000
   77    -64.65437    2.00000
   78    -64.65068    2.00000
   79    -64.64655    2.00000
   80    -64.64170    2.00000
   81     -9.92381    2.00000
   82     -9.38196    2.00000
   83     -7.64591    2.00000
   84     -6.91003    2.00000
   85     -6.81660    2.00000
   86     -6.75652    2.00000
   87     -6.72611    2.00000
   88     -6.68857    2.00000
   89     -6.65409    2.00000
   90     -6.14418    2.00000
   91     -5.76378    2.00000
   92     -5.74447    2.00000
   93     -5.72204    2.00000
   94     -5.70369    2.00000
   95     -5.68258    2.00000
   96     -5.65270    2.00000
   97     -5.05783    2.00000
   98     -5.03849    2.00000
   99     -4.97382    2.00000
  100     -4.95841    2.00000
  101     -4.93451    2.00000
  102     -4.90698    2.00000
  103     -4.88453    2.00000
  104     -4.87552    2.00000
  105     -4.85776    2.00000
  106     -4.83549    2.00000
  107     -4.83076    2.00000
  108     -4.80976    2.00000
  109     -4.80220    2.00000
  110     -4.76696    2.00000
  111     -4.69893    2.00000
  112     -4.67457    2.00000
  113     -4.64459    2.00000
  114     -4.55819    2.00000
  115     -4.50817    2.00000
  116     -4.46742    2.00000
  117     -4.42967    2.00000
  118     -4.39309    2.00000
  119     -4.30167    2.00000
  120     -4.28450    2.00000
  121     -4.21993    2.00000
  122     -4.21094    2.00000
  123     -4.15141    2.00000
  124     -4.09776    2.00000
  125     -3.91836    2.00000
  126     -3.91017    2.00000
  127     -3.85515    2.00000
  128     -3.80052    2.00000
  129     -3.70071    2.00000
  130     -3.65486    2.00000
  131     -3.62649    2.00000
  132     -3.61323    2.00000
  133     -3.60469    2.00000
  134     -3.58115    2.00000
  135     -3.55250    2.00000
  136     -3.51519    2.00000
  137     -3.50960    2.00000
  138     -3.49223    2.00000
  139     -3.48298    2.00000
  140     -3.47591    2.00000
  141     -3.44141    2.00000
  142     -3.42920    2.00000
  143     -3.41083    2.00000
  144     -3.40042    2.00000
  145     -3.39887    2.00000
  146     -3.38905    2.00000
  147     -3.34478    2.00000
  148     -3.33797    2.00000
  149     -3.30805    2.00000
  150     -3.25445    2.00000
  151     -3.25142    2.00000
  152     -3.23310    2.00000
  153     -3.22952    2.00000
  154     -3.19850    2.00000
  155     -3.17911    2.00000
  156     -3.15591    2.00000
  157     -3.13676    2.00000
  158     -3.12923    2.00000
  159     -3.07274    2.00000
  160     -3.04627    2.00000
  161     -3.02025    2.00000
  162     -2.98952    2.00000
  163     -2.97027    2.00000
  164     -2.96889    2.00000
  165     -2.94582    2.00000
  166     -2.89751    1.99999
  167     -2.85864    1.99999
  168     -2.82905    1.99999
  169     -2.71785    1.99997
  170     -2.68794    1.99996
  171     -2.64860    1.99993
  172     -2.62599    1.99992
  173     -2.56309    1.99984
  174     -2.54746    1.99982
  175     -2.49421    1.99969
  176     -2.46946    1.99960
  177     -2.44804    1.99951
  178     -2.42126    1.99936
  179     -2.40196    1.99922
  180     -2.38549    1.99908
  181     -2.33306    1.99844
  182     -2.32106    1.99825
  183     -2.29425    1.99771
  184     -2.27032    1.99709
  185     -2.23544    1.99588
  186     -2.23377    1.99581
  187     -2.22169    1.99527
  188     -2.20032    1.99415
  189     -2.15857    1.99113
  190     -2.14519    1.98986
  191     -2.11463    1.98626
  192     -2.09633    1.98353
  193     -2.06869    1.97834
  194     -2.06561    1.97767
  195     -2.03416    1.96955
  196     -2.01066    1.96163
  197     -1.99280    1.95430
  198     -1.98155    1.94900
  199     -1.96942    1.94261
  200     -1.94463    1.92706
  201     -1.93259    1.91811
  202     -1.91545    1.90353
  203     -1.90308    1.89152
  204     -1.86813    1.84954
  205     -1.84663    1.81676
  206     -1.80158    1.72674
  207     -1.78380    1.68202
  208     -1.78197    1.67707
  209     -1.76542    1.62971
  210     -1.75292    1.59054
  211     -1.74176    1.55298
  212     -1.70760    1.42343
  213     -1.70432    1.40989
  214     -1.68604    1.33111
  215     -1.67133    1.26413
  216     -1.65542    1.18867
  217     -1.61240    0.97589
  218     -1.60967    0.96224
  219     -1.57789    0.80582
  220     -1.53612    0.61534
  221     -1.51181    0.51684
  222     -1.48723    0.42835
  223     -1.48147    0.40928
  224     -1.47756    0.39668
  225     -1.46343    0.35367
  226     -1.44689    0.30805
  227     -1.40794    0.21959
  228     -1.39657    0.19832
  229     -1.38588    0.18003
  230     -1.33362    0.11081
  231     -1.30444    0.08394
  232     -0.39972    0.00001
  233      0.86091    0.00000
  234      0.96296    0.00000
  235      1.19415    0.00000
  236      1.20833    0.00000
  237      1.22663    0.00000
  238      1.51177    0.00000
  239      2.81187    0.00000
  240      3.30970    0.00000
  241      3.42521    0.00000
  242      3.60356    0.00000
  243      3.66901    0.00000
  244      3.68567    0.00000
  245      3.74084    0.00000
  246      3.78063    0.00000
  247      3.85197    0.00000
  248      3.89575    0.00000
  249      4.01815    0.00000
  250      4.20727    0.00000
  251      4.28107    0.00000
  252      4.34691    0.00000
  253      4.51588    0.00000
  254      4.94554    0.00000
  255      5.08517    0.00000
  256      5.29487    0.00000
  257      5.37760    0.00000
  258      5.68321    0.00000
  259      5.91918    0.00000
  260      6.12818    0.00000
  261      6.17202    0.00000
  262      6.28414    0.00000
  263      6.30790    0.00000
  264      6.37420    0.00000

Fermi level: -1.61723

Gap: 0.043 eV
Transition (v -> c):
  (s=0, k=0, n=216, [0.00, 0.00, 0.00]) -> (s=0, k=0, n=217, [0.00, 0.00, 0.00])
No difference between direct/indirect transitions

Forces in eV/Ang:
  0 Ni    0.00446    0.01939    0.01181
  1 Ni   -0.01603    0.00354    0.01016
  2 Ni    0.03506   -0.01350    0.01309
  3 Ni    0.03561   -0.00567    0.04804
  4 Ni   -0.00670   -0.04217   -0.03603
  5 Ni   -0.00562    0.01027   -0.00014
  6 Ni    0.00117   -0.01449    0.03215
  7 Ni   -0.01741    0.00911    0.00415
  8 Ni    0.00517   -0.00375   -0.00903
  9 Ni    0.01394    0.00025    0.02177
 10 Ni    0.05989    0.02527    0.13653
 11 Ni    0.03994    0.01178    0.00324
 12 Ni    0.03976   -0.02867    0.02672
 13 Ni    0.00645    0.02092    0.05703
 14 Ni   -0.00400    0.00279   -0.01331
 15 Ni   -0.01108    0.00597    0.03369
 16 Ni    0.03298    0.02282    0.03481
 17 Ni   -0.01391    0.00231   -0.04030
 18 Ni   -0.00535    0.01713    0.02048
 19 Ni    0.06684   -0.01607    0.04771
 20 Ni   -0.06387    0.03573   -0.02213
 21 Ni   -0.07394    0.00112    0.02870
 22 Ni   -0.07061    0.18560    0.36763
 23 Ni   -0.01330   -0.01731   -0.01677
 24 Ni   -0.02722    0.02056    0.05179
 25 Ni   -0.00447    0.03678    0.07375
 26 Ni    0.00207    0.04586    0.03000
 27 H    -0.04045    0.04647   -0.29819
 28 H     0.03072   -0.37857   -0.63528

Timing:                                      incl.     excl.
-------------------------------------------------------------------
Density initialized from wave functions:    25.473    25.473   0.1% |
 Symmetrize density:                         0.001     0.001   0.0% |
Forces:                                    100.557   100.557   0.4% |
Hamiltonian:                                69.852     0.110   0.0% |
 Atomic:                                    42.912     0.117   0.0% |
  XC Correction:                            42.795    42.795   0.2% |
 Calculate atomic Hamiltonians:             12.146    12.146   0.1% |
 Communicate:                                0.000     0.000   0.0% |
 Initialize Hamiltonian:                     0.001     0.001   0.0% |
 Poisson:                                    0.160     0.160   0.0% |
 XC 3D grid:                                14.524    14.524   0.1% |
LCAO initialization:                         8.351     0.034   0.0% |
 LCAO eigensolver:                           1.169     0.000   0.0% |
  Calculate projections:                     0.001     0.001   0.0% |
  DenseAtomicCorrection:                     0.003     0.003   0.0% |
  Distribute overlap matrix:                 0.000     0.000   0.0% |
  Orbital Layouts:                           0.011     0.011   0.0% |
  Potential matrix:                          1.153     1.153   0.0% |
 LCAO to grid:                               6.667     6.667   0.0% |
 Set positions (LCAO WFS):                   0.481     0.094   0.0% |
  Basic WFS set positions:                   0.000     0.000   0.0% |
  Basis functions set positions:             0.000     0.000   0.0% |
  P tci:                                     0.254     0.254   0.0% |
  ST tci:                                    0.120     0.120   0.0% |
  mktci:                                     0.012     0.012   0.0% |
PWDescriptor:                                0.003     0.003   0.0% |
Redistribute:                                0.093     0.093   0.0% |
SCF-cycle:                                7603.673     1.690   0.0% |
 Davidson:                                4198.295   639.977   2.7% ||
  Apply H:                                 644.526   627.111   2.7% ||
   HMM T:                                   17.416    17.416   0.1% |
  Subspace diag:                           807.488     0.220   0.0% |
   calc_h_matrix:                          655.396    84.507   0.4% |
    Apply H:                               570.889   557.183   2.4% ||
     HMM T:                                 13.707    13.707   0.1% |
   diagonalize:                             50.702    50.702   0.2% |
   rotate_psi:                             101.171   101.171   0.4% |
  calc. matrices:                         1654.292   370.835   1.6% ||
   Apply H:                               1283.457  1254.445   5.4% |-|
    HMM T:                                  29.012    29.012   0.1% |
  diagonalize:                             273.991   273.991   1.2% |
  rotate_psi:                              178.020   178.020   0.8% |
 Density:                                  946.168     0.028   0.0% |
  Atomic density matrices:                   3.854     3.854   0.0% |
  Mix:                                     582.267   582.267   2.5% ||
  Multipole moments:                         0.711     0.711   0.0% |
  Pseudo density:                          359.307   359.289   1.5% ||
   Symmetrize density:                       0.018     0.018   0.0% |
 Hamiltonian:                             2451.993    10.097   0.0% |
  Atomic:                                 1442.097     3.966   0.0% |
   XC Correction:                         1438.130  1438.130   6.2% |-|
  Calculate atomic Hamiltonians:           459.661   459.661   2.0% ||
  Communicate:                               0.013     0.013   0.0% |
  Poisson:                                   8.861     8.861   0.0% |
  XC 3D grid:                              531.264   531.264   2.3% ||
 Orthonormalize:                             5.528     0.014   0.0% |
  calc_s_matrix:                             0.938     0.938   0.0% |
  inverse-cholesky:                          0.373     0.373   0.0% |
  projections:                               2.775     2.775   0.0% |
  rotate_psi_s:                              1.428     1.428   0.0% |
Set symmetry:                                0.000     0.000   0.0% |
Other:                                   15509.053 15509.053  66.5% |--------------------------|
-------------------------------------------------------------------
Total:                                             23317.056 100.0%

Date: Sun Mar 30 21:56:34 2025
