
  ___ ___ ___ _ _ _  
 |   |   |_  | | | | 
 | | | | | . | | | | 
 |__ |  _|___|_____|  24.6.0
 |___|_|             

User:   kerem@DESKTOP-CMKTO4T
Date:   Sun Mar 30 15:27:56 2025
Arch:   x86_64
Pid:    5494
CWD:    /home/kerem
Python: 3.12.9
gpaw:   /home/kerem/miniconda3/envs/gpaw-env/lib/python3.12/site-packages/gpaw
_gpaw:  /home/kerem/miniconda3/envs/gpaw-env/lib/python3.12/site-packages/
        _gpaw.cpython-312-x86_64-linux-gnu.so
ase:    /home/kerem/miniconda3/envs/gpaw-env/lib/python3.12/site-packages/ase (version 3.24.0)
numpy:  /home/kerem/miniconda3/envs/gpaw-env/lib/python3.12/site-packages/numpy (version 1.26.4)
scipy:  /home/kerem/miniconda3/envs/gpaw-env/lib/python3.12/site-packages/scipy (version 1.15.2)
libxc:  6.2.2
units:  Angstrom and eV
cores: 1
OpenMP: True
OMP_NUM_THREADS: 1

Input parameters:
  kpts: [1 1 1]
  mode: {ecut: 300.0,
         name: pw}
  xc: PBE

System changes: positions, numbers, cell, pbc, initial_charges, initial_magmoms 

Initialize ...

species:
  Ni:
    name: Nickel
    id: 0d9f38a9d6e76a2886f07bb4381f212b
    Z: 28.0
    valence: 16
    core: 12
    charge: 0.0
    file: /home/kerem/miniconda3/envs/gpaw-env/share/gpaw/Ni.PBE.gz
    compensation charges: {type: gauss,
                           rc: 0.36,
                           lmax: 2}
    cutoffs: {filter: 2.14,
              core: 1.98}
    projectors:
      #              energy  rcut
      - 4s(2.00)    -5.642   1.164
      - 3p(6.00)   -71.394   1.207
      - 4p(0.00)    -1.226   1.207
      - 3d(8.00)    -8.875   1.138
      -  s          21.570   1.164
      -  d          18.337   1.138
  
    # Using partial waves for Ni as LCAO basis

  H:
    name: Hydrogen
    id: d65de229564ff8ea4db303e23b6d1ecf
    Z: 1.0
    valence: 1
    core: 0
    charge: 0.0
    file: /home/kerem/miniconda3/envs/gpaw-env/share/gpaw/H.PBE.gz
    compensation charges: {type: gauss,
                           rc: 0.15,
                           lmax: 2}
    cutoffs: {filter: 0.85,
              core: 0.53}
    projectors:
      #              energy  rcut
      - 1s(1.00)    -6.494   0.476
      -  s          20.717   0.476
      -  p           0.000   0.476
  
    # Using partial waves for H as LCAO basis

Reference energy: -1116960.938401  # eV

Spin-paired calculation

Convergence criteria:
 Maximum [total energy] change in last 3 cyles: 0.0005 eV / valence electron
 Maximum integral of absolute [dens]ity change: 0.0001 electrons / valence electron
 Maximum integral of absolute [eigenst]ate change: 4e-08 eV^2 / valence electron
 Maximum number of scf [iter]ations: 333
 (Square brackets indicate name in SCF output, whereas a 'c' in
 the SCF output indicates the quantity has converged.)

Symmetries present (total): 1

  ( 1  0  0)
  ( 0  1  0)
  ( 0  0  1)

1 k-point (Gamma)
1 k-point in the irreducible part of the Brillouin zone
       k-points in crystal coordinates                weights
   0:     0.00000000    0.00000000    0.00000000          1/1

Wave functions: Plane wave expansion
  Cutoff energy: 300.000 eV
  Number of coefficients: 13711 (reduced to 6856)
  Pulay-stress correction: 0.000000 eV/Ang^3 (de/decut=0.000000)
  Using FFTW library
  ScaLapack parameters: grid=1x1, blocksize=None
  Wavefunction extrapolation:
    Improved wavefunction reuse through dual PAW basis 

Occupation numbers: Fermi-Dirac:
  width: 0.1000  # eV
 

Eigensolver
   Davidson(niter=2) 

Densities:
  Coarse grid: 30*30*98 grid
  Fine grid: 60*60*196 grid
  Total Charge: 0.000000 

Density mixing:
  Method: separate
  Backend: pulay
  Linear mixing parameter: 0.05
  old densities: 5
  Damping of long wavelength oscillations: 50 

Hamiltonian:
  XC and Coulomb potentials evaluated on a 60*60*196 grid
  Using the PBE Exchange-Correlation functional
  External potential:
    NoExternalPotential
 

XC parameters: PBE with 2 nearest neighbor stencil

Memory estimate:
  Process memory now: 875.69 MiB
  Calculator: 119.38 MiB
    Density: 42.41 MiB
      Arrays: 17.50 MiB
      Localized functions: 18.19 MiB
      Mixer: 6.73 MiB
    Hamiltonian: 11.88 MiB
      Arrays: 11.44 MiB
      XC: 0.00 MiB
      Poisson: 0.00 MiB
      vbar: 0.44 MiB
    Wavefunctions: 65.09 MiB
      Arrays psit_nG: 27.72 MiB
      Eigensolver: 33.61 MiB
      Projections: 1.00 MiB
      Projectors: 0.94 MiB
      PW-descriptor: 1.81 MiB

Total number of cores used: 1

Number of atoms: 29
Number of atomic orbitals: 326
Number of bands in calculation: 265
Number of valence electrons: 434
Bands to converge: occupied

... initialized

Initializing position-dependent things.

Density initialized from atomic densities
Creating initial wave functions:
  265 bands from LCAO basis set

                                         
                                         
                                         
                                         
                                         
                   H                     
                 H                       
                Ni    Ni    Ni           
           Ni    NNi   NNi   Ni          
       Ni    Ni    Ni                    
            Ni    Ni    Ni               
        Ni    Ni   NNi   Ni    Ni        
                                         
               Ni    Ni    Ni            
           Ni    Ni    Ni                
                                         
                                         
                                         
                                         

Positions:
   0 Ni     1.244508    0.718517   10.000000    ( 0.0000,  0.0000,  0.0000)
   1 Ni     3.733524    0.718517   10.000000    ( 0.0000,  0.0000,  0.0000)
   2 Ni     6.222540    0.718517   10.000000    ( 0.0000,  0.0000,  0.0000)
   3 Ni     2.489016    2.874068   10.000000    ( 0.0000,  0.0000,  0.0000)
   4 Ni     4.978032    2.874068   10.000000    ( 0.0000,  0.0000,  0.0000)
   5 Ni     7.467048    2.874068   10.000000    ( 0.0000,  0.0000,  0.0000)
   6 Ni     3.733524    5.029619   10.000000    ( 0.0000,  0.0000,  0.0000)
   7 Ni     6.222540    5.029619   10.000000    ( 0.0000,  0.0000,  0.0000)
   8 Ni     8.711556    5.029619   10.000000    ( 0.0000,  0.0000,  0.0000)
   9 Ni     0.000000    1.437034   12.032273    ( 0.0000,  0.0000,  0.0000)
  10 Ni     2.489016    1.437034   12.032273    ( 0.0000,  0.0000,  0.0000)
  11 Ni     4.978032    1.437034   12.032273    ( 0.0000,  0.0000,  0.0000)
  12 Ni     1.244508    3.592585   12.032273    ( 0.0000,  0.0000,  0.0000)
  13 Ni     3.733524    3.592585   12.032273    ( 0.0000,  0.0000,  0.0000)
  14 Ni     6.222540    3.592585   12.032273    ( 0.0000,  0.0000,  0.0000)
  15 Ni     2.489016    5.748136   12.032273    ( 0.0000,  0.0000,  0.0000)
  16 Ni     4.978032    5.748136   12.032273    ( 0.0000,  0.0000,  0.0000)
  17 Ni     7.467048    5.748136   12.032273    ( 0.0000,  0.0000,  0.0000)
  18 Ni     0.000000    0.000000   14.064546    ( 0.0000,  0.0000,  0.0000)
  19 Ni     2.489016    0.000000   14.064546    ( 0.0000,  0.0000,  0.0000)
  20 Ni     4.978032    0.000000   14.064546    ( 0.0000,  0.0000,  0.0000)
  21 Ni     1.244508    2.155551   14.064546    ( 0.0000,  0.0000,  0.0000)
  22 Ni     3.733524    2.155551   14.064546    ( 0.0000,  0.0000,  0.0000)
  23 Ni     6.222540    2.155551   14.064546    ( 0.0000,  0.0000,  0.0000)
  24 Ni     2.489016    4.311102   14.064546    ( 0.0000,  0.0000,  0.0000)
  25 Ni     4.978032    4.311102   14.064546    ( 0.0000,  0.0000,  0.0000)
  26 Ni     7.467048    4.311102   14.064546    ( 0.0000,  0.0000,  0.0000)
  27 H      3.358524    3.233326   15.439546    ( 0.0000,  0.0000,  0.0000)
  28 H      4.108524    3.233326   15.624546    ( 0.0000,  0.0000,  0.0000)

Unit cell:
           periodic     x           y           z      points  spacing
  1. axis:    yes    7.467048    0.000000    0.000000    30     0.2156
  2. axis:    yes    3.733524    6.466653    0.000000    30     0.2156
  3. axis:    no     0.000000    0.000000   24.064546    98     0.2456

  Lengths:   7.467048   7.467048  24.064546
  Angles:   90.000000  90.000000  60.000000

Effective grid spacing dv^(1/3) = 0.2362

     iter     time        total  log10-change:
                         energy   eigst   dens
iter:   1 15:38:36  -186.257843
iter:   2 15:38:39  -183.435652   -0.81  -1.54
iter:   3 15:38:42  -224.718683   -1.12  -1.59
iter:   4 15:38:44  -181.452700   -1.44  -1.57
iter:   5 15:38:47  -188.242879   -1.65  -1.71
iter:   6 15:38:50  -191.077714   -1.89  -1.72
iter:   7 15:38:53  -186.128036   -1.80  -1.73
iter:   8 15:38:56  -190.494027   -1.79  -1.77
iter:   9 15:38:58  -191.988270   -2.06  -1.72
iter:  10 15:39:01  -185.081013   -2.56  -1.74
iter:  11 15:39:04  -179.987156   -2.48  -1.81
iter:  12 15:39:10  -179.135853   -3.06  -1.83
iter:  13 15:39:13  -194.890281   -2.01  -1.84
iter:  14 15:39:16  -191.167129   -1.86  -1.72
iter:  15 15:39:19  -182.268975   -2.17  -1.73
iter:  16 15:39:22  -184.319446   -2.21  -1.85
iter:  17 15:39:25  -182.052309   -2.23  -1.86
iter:  18 15:39:27  -180.796754   -2.37  -1.90
iter:  19 15:39:30  -180.802869   -2.86  -1.91
iter:  20 15:39:33  -180.115057   -2.60  -1.96
iter:  21 15:39:36  -197.077655   -1.77  -2.09
iter:  22 15:39:39  -181.510922   -2.24  -1.75
iter:  23 15:39:45  -179.209806   -2.56  -2.12
iter:  24 15:39:48  -179.549768   -2.44  -2.34
iter:  25 15:39:51  -178.872253   -2.97  -2.30
iter:  26 15:39:54  -178.556280   -3.47  -2.41
iter:  27 15:39:56  -178.629302   -3.66  -2.46
iter:  28 15:39:59  -178.422248c  -3.54  -2.43
iter:  29 15:40:02  -178.412926c  -4.02  -2.54
iter:  30 15:40:05  -178.496145c  -3.48  -2.58
iter:  31 15:40:08  -178.505164c  -3.50  -2.59
iter:  32 15:40:10  -179.004484   -3.21  -2.61
iter:  33 15:40:13  -178.748543   -3.49  -2.35
iter:  34 15:40:16  -178.473588   -3.59  -2.45
iter:  35 15:40:22  -178.327267   -3.81  -2.72
iter:  36 15:40:25  -178.323392c  -4.42  -2.92
iter:  37 15:40:28  -178.312628c  -4.97  -2.96
iter:  38 15:40:31  -178.356602c  -4.55  -3.05
iter:  39 15:40:34  -178.394181c  -4.41  -2.87
iter:  40 15:40:36  -178.330165c  -4.46  -2.76
iter:  41 15:40:39  -178.378698c  -3.97  -3.16
iter:  42 15:40:42  -178.327466c  -4.21  -2.94
iter:  43 15:40:45  -178.315343c  -4.75  -3.12
iter:  44 15:40:48  -178.331112c  -5.01  -3.32
iter:  45 15:40:50  -178.315602c  -5.20  -3.06
iter:  46 15:40:57  -178.310988c  -6.03  -3.35
iter:  47 15:41:00  -178.311161c  -5.84  -3.51
iter:  48 15:41:03  -178.316614c  -5.36  -3.51
iter:  49 15:41:05  -178.316185c  -5.17  -3.43
iter:  50 15:41:08  -178.325437c  -5.07  -3.43
iter:  51 15:41:11  -178.328865c  -5.01  -3.16
iter:  52 15:41:14  -178.312279c  -5.27  -3.09
iter:  53 15:41:16  -178.311722c  -5.83  -3.58
iter:  54 15:41:19  -178.311001c  -6.46  -3.66
iter:  55 15:41:22  -178.311397c  -6.46  -3.67
iter:  56 15:41:25  -178.315706c  -5.80  -3.70
iter:  57 15:41:28  -178.330107c  -5.29  -3.42
iter:  58 15:41:34  -178.312514c  -5.33  -3.14
iter:  59 15:41:37  -178.311684c  -5.52  -3.67
iter:  60 15:41:40  -178.313480c  -5.66  -3.65
iter:  61 15:41:43  -178.311822c  -6.04  -3.73
iter:  62 15:41:46  -178.311492c  -6.85  -3.82
iter:  63 15:41:49  -178.312292c  -6.59  -3.84
iter:  64 15:41:51  -178.311982c  -6.49  -3.65
iter:  65 15:41:54  -178.312858c  -6.05  -3.87
iter:  66 15:41:57  -178.311439c  -5.90  -3.80
iter:  67 15:42:00  -178.312546c  -5.73  -3.79
iter:  68 15:42:03  -178.313482c  -5.97  -3.77
iter:  69 15:42:09  -178.314785c  -6.08  -3.68
iter:  70 15:42:12  -178.311705c  -6.23  -3.56
iter:  71 15:42:15  -178.311647c  -7.01  -4.00
iter:  72 15:42:17  -178.312025c  -7.16  -4.02c
iter:  73 15:42:20  -178.311807c  -6.39  -4.06c
iter:  74 15:42:23  -178.311661c  -6.26  -3.91
iter:  75 15:42:26  -178.313208c  -6.18  -3.87
iter:  76 15:42:29  -178.312616c  -6.04  -3.59
iter:  77 15:42:32  -178.312381c  -6.32  -3.97
iter:  78 15:42:34  -178.311584c  -6.81  -4.05c
iter:  79 15:42:37  -178.311823c  -7.24  -4.16c
iter:  80 15:42:44  -178.311922c  -7.47c -4.19c

Converged after 80 iterations.

Dipole moment: (-0.753542, -0.301947, 0.172052) |e|*Ang

Energy contributions relative to reference atoms: (reference = -1116960.938401)

Kinetic:       +261.546456
Potential:     -212.235408
External:        +0.000000
XC:            -230.442423
Entropy (-ST):   -4.212274
Local:           +4.925590
SIC:             +0.000000
--------------------------
Free energy:   -180.418059
Extrapolated:  -178.311922

 Band  Eigenvalues  Occupancy
    0    -65.25101    2.00000
    1    -65.23313    2.00000
    2    -65.22328    2.00000
    3    -65.22102    2.00000
    4    -65.21512    2.00000
    5    -65.21466    2.00000
    6    -65.21398    2.00000
    7    -65.20626    2.00000
    8    -65.20579    2.00000
    9    -65.01514    2.00000
   10    -65.01281    2.00000
   11    -65.01142    2.00000
   12    -65.00848    2.00000
   13    -65.00510    2.00000
   14    -64.99533    2.00000
   15    -64.99055    2.00000
   16    -64.99010    2.00000
   17    -64.98692    2.00000
   18    -64.98353    2.00000
   19    -64.92765    2.00000
   20    -64.91813    2.00000
   21    -64.91433    2.00000
   22    -64.91143    2.00000
   23    -64.90620    2.00000
   24    -64.90139    2.00000
   25    -64.89316    2.00000
   26    -64.87262    2.00000
   27    -64.87100    2.00000
   28    -64.86726    2.00000
   29    -64.83631    2.00000
   30    -64.83548    2.00000
   31    -64.83500    2.00000
   32    -64.83422    2.00000
   33    -64.83351    2.00000
   34    -64.83282    2.00000
   35    -64.83156    2.00000
   36    -64.82795    2.00000
   37    -64.82743    2.00000
   38    -64.82497    2.00000
   39    -64.82394    2.00000
   40    -64.82322    2.00000
   41    -64.82291    2.00000
   42    -64.82263    2.00000
   43    -64.82132    2.00000
   44    -64.81794    2.00000
   45    -64.81533    2.00000
   46    -64.81151    2.00000
   47    -64.80580    2.00000
   48    -64.75130    2.00000
   49    -64.74434    2.00000
   50    -64.74413    2.00000
   51    -64.74371    2.00000
   52    -64.74293    2.00000
   53    -64.74248    2.00000
   54    -64.74244    2.00000
   55    -64.74064    2.00000
   56    -64.74007    2.00000
   57    -64.73592    2.00000
   58    -64.73196    2.00000
   59    -64.72766    2.00000
   60    -64.72617    2.00000
   61    -64.71650    2.00000
   62    -64.71297    2.00000
   63    -64.71237    2.00000
   64    -64.71193    2.00000
   65    -64.71102    2.00000
   66    -64.70911    2.00000
   67    -64.70896    2.00000
   68    -64.70784    2.00000
   69    -64.70654    2.00000
   70    -64.70542    2.00000
   71    -64.70506    2.00000
   72    -64.70451    2.00000
   73    -64.70373    2.00000
   74    -64.70324    2.00000
   75    -64.69942    2.00000
   76    -64.69884    2.00000
   77    -64.69720    2.00000
   78    -64.69519    2.00000
   79    -64.68160    2.00000
   80    -64.67657    2.00000
   81    -10.76777    2.00000
   82     -9.53095    2.00000
   83     -7.46830    2.00000
   84     -6.59079    2.00000
   85     -6.58688    2.00000
   86     -6.57840    2.00000
   87     -6.57523    2.00000
   88     -6.57382    2.00000
   89     -6.54685    2.00000
   90     -6.05650    2.00000
   91     -5.56602    2.00000
   92     -5.54709    2.00000
   93     -5.53743    2.00000
   94     -5.53012    2.00000
   95     -5.52958    2.00000
   96     -5.46049    2.00000
   97     -4.83101    2.00000
   98     -4.82781    2.00000
   99     -4.82528    2.00000
  100     -4.82137    2.00000
  101     -4.82031    2.00000
  102     -4.81573    2.00000
  103     -4.63283    2.00000
  104     -4.62357    2.00000
  105     -4.60750    2.00000
  106     -4.60521    2.00000
  107     -4.59596    2.00000
  108     -4.59496    2.00000
  109     -4.56208    2.00000
  110     -4.51901    2.00000
  111     -4.50950    2.00000
  112     -4.49608    2.00000
  113     -4.49477    2.00000
  114     -4.44866    2.00000
  115     -4.29926    2.00000
  116     -4.29457    2.00000
  117     -4.28792    2.00000
  118     -4.28734    2.00000
  119     -4.05597    2.00000
  120     -4.01550    2.00000
  121     -4.01321    2.00000
  122     -4.00966    2.00000
  123     -4.00660    2.00000
  124     -3.96943    2.00000
  125     -3.61292    2.00000
  126     -3.60551    2.00000
  127     -3.59294    2.00000
  128     -3.57818    2.00000
  129     -3.55980    2.00000
  130     -3.55576    2.00000
  131     -3.55543    2.00000
  132     -3.53004    2.00000
  133     -3.52263    2.00000
  134     -3.46603    2.00000
  135     -3.44029    2.00000
  136     -3.29327    2.00000
  137     -3.27515    2.00000
  138     -3.27439    2.00000
  139     -3.25106    2.00000
  140     -3.24903    2.00000
  141     -3.23661    2.00000
  142     -3.21933    2.00000
  143     -3.21554    2.00000
  144     -3.20788    2.00000
  145     -3.20234    2.00000
  146     -3.20144    2.00000
  147     -3.20049    2.00000
  148     -3.18144    2.00000
  149     -3.16965    2.00000
  150     -3.15372    2.00000
  151     -3.15314    2.00000
  152     -3.14418    2.00000
  153     -3.06213    2.00000
  154     -3.05832    2.00000
  155     -3.05550    2.00000
  156     -3.05314    2.00000
  157     -3.05185    2.00000
  158     -3.04682    2.00000
  159     -3.02112    2.00000
  160     -3.00084    2.00000
  161     -2.98999    2.00000
  162     -2.96096    2.00000
  163     -2.94693    2.00000
  164     -2.94291    2.00000
  165     -2.94228    2.00000
  166     -2.79936    1.99998
  167     -2.64889    1.99991
  168     -2.64507    1.99991
  169     -2.62730    1.99989
  170     -2.62123    1.99989
  171     -2.61954    1.99988
  172     -2.59002    1.99984
  173     -2.37260    1.99862
  174     -2.36136    1.99846
  175     -2.34309    1.99815
  176     -2.34032    1.99810
  177     -2.30828    1.99738
  178     -2.30108    1.99719
  179     -2.29208    1.99692
  180     -2.28819    1.99680
  181     -2.28773    1.99679
  182     -2.28110    1.99657
  183     -2.27948    1.99651
  184     -2.27889    1.99649
  185     -2.13904    1.98586
  186     -2.09063    1.97715
  187     -2.08600    1.97608
  188     -2.07801    1.97412
  189     -2.07249    1.97267
  190     -2.07222    1.97260
  191     -1.94984    1.90980
  192     -1.93417    1.89530
  193     -1.92388    1.88460
  194     -1.91350    1.87278
  195     -1.90428    1.86136
  196     -1.89885    1.85417
  197     -1.89746    1.85228
  198     -1.89469    1.84845
  199     -1.89229    1.84506
  200     -1.82712    1.72246
  201     -1.81400    1.68957
  202     -1.79576    1.63868
  203     -1.79305    1.63061
  204     -1.77943    1.58781
  205     -1.77143    1.56101
  206     -1.76981    1.55544
  207     -1.76384    1.53445
  208     -1.76306    1.53167
  209     -1.76182    1.52722
  210     -1.72899    1.39869
  211     -1.72607    1.38636
  212     -1.71592    1.34236
  213     -1.71516    1.33899
  214     -1.70691    1.30198
  215     -1.70607    1.29814
  216     -1.70478    1.29230
  217     -1.70319    1.28497
  218     -1.62717    0.91323
  219     -1.62532    0.90406
  220     -1.62174    0.88636
  221     -1.58508    0.71103
  222     -1.57511    0.66604
  223     -1.56796    0.63463
  224     -1.56680    0.62964
  225     -1.56433    0.61903
  226     -1.56373    0.61647
  227     -1.56099    0.60486
  228     -1.53059    0.48471
  229     -1.52743    0.47320
  230     -1.52701    0.47170
  231     -1.36283    0.11278
  232     -0.39855    0.00001
  233      0.74014    0.00000
  234      0.90372    0.00000
  235      1.05609    0.00000
  236      1.05968    0.00000
  237      1.06819    0.00000
  238      1.89809    0.00000
  239      2.88468    0.00000
  240      3.28764    0.00000
  241      3.34649    0.00000
  242      3.64257    0.00000
  243      3.77735    0.00000
  244      3.95286    0.00000
  245      3.96068    0.00000
  246      3.96879    0.00000
  247      3.97160    0.00000
  248      4.03349    0.00000
  249      4.03626    0.00000
  250      4.05129    0.00000
  251      4.32126    0.00000
  252      4.43456    0.00000
  253      4.54294    0.00000
  254      4.72813    0.00000
  255      4.87032    0.00000
  256      5.06641    0.00000
  257      5.46125    0.00000
  258      5.70014    0.00000
  259      6.05546    0.00000
  260      6.18563    0.00000
  261      6.21002    0.00000
  262      6.28463    0.00000
  263      6.28802    0.00000
  264      6.30644    0.00000

Fermi level: -1.64457

Gap: 0.076 eV
Transition (v -> c):
  (s=0, k=0, n=217, [0.00, 0.00, 0.00]) -> (s=0, k=0, n=218, [0.00, 0.00, 0.00])
No difference between direct/indirect transitions

Forces in eV/Ang:
  0 Ni    0.04284    0.00983    0.48135
  1 Ni    0.00174    0.01142    0.63401
  2 Ni   -0.04325    0.01001    0.48886
  3 Ni   -0.00013    0.00081    0.55360
  4 Ni    0.00150   -0.00126    0.55861
  5 Ni   -0.00158    0.03479    0.54366
  6 Ni   -0.00108   -0.01936    0.53797
  7 Ni    0.01554   -0.01107    0.65359
  8 Ni   -0.01426   -0.00853    0.65880
  9 Ni   -0.00379   -0.03849    0.14341
 10 Ni    0.04715    0.06487   -0.04830
 11 Ni   -0.03252    0.05258   -0.07163
 12 Ni    0.07435    0.01654   -0.09151
 13 Ni   -0.00371    0.04709   -0.22370
 14 Ni   -0.07665    0.02180   -0.08955
 15 Ni    0.07318   -0.04632   -0.02261
 16 Ni   -0.07544   -0.06490   -0.00210
 17 Ni    0.00320   -0.00725   -0.06151
 18 Ni   -0.00110    0.02897   -0.52914
 19 Ni   -0.02321   -0.10918   -0.51528
 20 Ni    0.02757   -0.10872   -0.52914
 21 Ni   -0.18635   -0.02260   -0.53799
 22 Ni    0.06163    0.10286    0.15827
 23 Ni    0.20378   -0.03066   -0.54557
 24 Ni   -0.39899    0.32500   -0.60942
 25 Ni    0.31527    0.24986   -0.50109
 26 Ni   -0.00182    0.00337   -0.45126
 27 H    -2.44604   -0.16541   -0.60764
 28 H     2.44254   -0.34408    0.04923

System changes: positions 

Initializing position-dependent things.

Density initialized from wave functions
                                         
                                         
                                         
                                         
                                         
                   H                     
                 H                       
                Ni    Ni    Ni           
           Ni    NNi   NNi   Ni          
       Ni    Ni    Ni                    
            Ni    Ni    Ni               
        Ni    Ni   NNi   Ni    Ni        
                                         
               Ni    Ni    Ni            
           Ni    Ni    Ni                
                                         
                                         
                                         
                                         

Positions:
   0 Ni     1.245120    0.718657   10.006876    ( 0.0000,  0.0000,  0.0000)
   1 Ni     3.733549    0.718680   10.009057    ( 0.0000,  0.0000,  0.0000)
   2 Ni     6.221922    0.718660   10.006984    ( 0.0000,  0.0000,  0.0000)
   3 Ni     2.489014    2.874080   10.007909    ( 0.0000,  0.0000,  0.0000)
   4 Ni     4.978053    2.874050   10.007980    ( 0.0000,  0.0000,  0.0000)
   5 Ni     7.467025    2.874565   10.007767    ( 0.0000,  0.0000,  0.0000)
   6 Ni     3.733508    5.029342   10.007685    ( 0.0000,  0.0000,  0.0000)
   7 Ni     6.222762    5.029461   10.009337    ( 0.0000,  0.0000,  0.0000)
   8 Ni     8.711352    5.029497   10.009411    ( 0.0000,  0.0000,  0.0000)
   9 Ni    -0.000054    1.436484   12.034322    ( 0.0000,  0.0000,  0.0000)
  10 Ni     2.489690    1.437961   12.031583    ( 0.0000,  0.0000,  0.0000)
  11 Ni     4.977567    1.437785   12.031250    ( 0.0000,  0.0000,  0.0000)
  12 Ni     1.245570    3.592821   12.030966    ( 0.0000,  0.0000,  0.0000)
  13 Ni     3.733471    3.593258   12.029077    ( 0.0000,  0.0000,  0.0000)
  14 Ni     6.221445    3.592896   12.030994    ( 0.0000,  0.0000,  0.0000)
  15 Ni     2.490061    5.747474   12.031950    ( 0.0000,  0.0000,  0.0000)
  16 Ni     4.976954    5.747209   12.032243    ( 0.0000,  0.0000,  0.0000)
  17 Ni     7.467093    5.748032   12.031394    ( 0.0000,  0.0000,  0.0000)
  18 Ni    -0.000016    0.000414   14.056987    ( 0.0000,  0.0000,  0.0000)
  19 Ni     2.488684   -0.001560   14.057185    ( 0.0000,  0.0000,  0.0000)
  20 Ni     4.978426   -0.001553   14.056987    ( 0.0000,  0.0000,  0.0000)
  21 Ni     1.241846    2.155228   14.056860    ( 0.0000,  0.0000,  0.0000)
  22 Ni     3.734404    2.157020   14.066807    ( 0.0000,  0.0000,  0.0000)
  23 Ni     6.225451    2.155113   14.056752    ( 0.0000,  0.0000,  0.0000)
  24 Ni     2.483316    4.315745   14.055840    ( 0.0000,  0.0000,  0.0000)
  25 Ni     4.982536    4.314671   14.057387    ( 0.0000,  0.0000,  0.0000)
  26 Ni     7.467022    4.311150   14.058099    ( 0.0000,  0.0000,  0.0000)
  27 H      3.326565    3.230963   15.439819    ( 0.0000,  0.0000,  0.0000)
  28 H      4.140433    3.228411   15.638619    ( 0.0000,  0.0000,  0.0000)

Unit cell:
           periodic     x           y           z      points  spacing
  1. axis:    yes    7.467048    0.000000    0.000000    30     0.2156
  2. axis:    yes    3.733524    6.466653    0.000000    30     0.2156
  3. axis:    no     0.000000    0.000000   24.064546    98     0.2456

  Lengths:   7.467048   7.467048  24.064546
  Angles:   90.000000  90.000000  60.000000

Effective grid spacing dv^(1/3) = 0.2362

     iter     time        total  log10-change:
                         energy   eigst   dens
iter:   1 15:51:42  -182.130930   -2.10
iter:   2 15:51:45  -241.264543   -1.29  -2.02
iter:   3 15:51:48  -187.596345   -1.78  -1.57
iter:   4 15:51:50  -179.293786   -2.21  -1.94
iter:   5 15:51:53  -180.589297   -2.73  -2.31
iter:   6 15:51:56  -178.836507   -3.22  -2.15
iter:   7 15:51:59  -178.599307   -3.80  -2.50
iter:   8 15:52:01  -178.767639   -3.68  -2.78
iter:   9 15:52:04  -178.597431c  -3.89  -2.59
iter:  10 15:52:07  -178.614200c  -3.84  -2.82
iter:  11 15:52:10  -178.694899c  -3.90  -2.86
iter:  12 15:52:12  -178.562884c  -4.77  -2.60
iter:  13 15:52:19  -178.581390c  -4.43  -2.92
iter:  14 15:52:22  -178.576297c  -4.06  -2.82
iter:  15 15:52:24  -178.548235c  -4.30  -2.95
iter:  16 15:52:27  -178.541606c  -5.31  -2.97
iter:  17 15:52:30  -178.768553   -3.97  -3.05
iter:  18 15:52:33  -178.529895   -4.28  -2.56
iter:  19 15:52:35  -178.523948   -5.35  -3.27
iter:  20 15:52:38  -178.520887c  -5.84  -3.37
iter:  21 15:52:41  -178.525870c  -5.38  -3.57
iter:  22 15:52:44  -178.520169c  -5.56  -3.53
iter:  23 15:52:47  -178.521222c  -6.13  -3.69
iter:  24 15:52:53  -178.522959c  -5.56  -3.62
iter:  25 15:52:56  -178.524164c  -5.36  -3.40
iter:  26 15:52:59  -178.520670c  -5.73  -3.56
iter:  27 15:53:01  -178.519023c  -5.80  -3.82
iter:  28 15:53:04  -178.521257c  -5.78  -3.75
iter:  29 15:53:07  -178.520024c  -6.21  -3.82
iter:  30 15:53:10  -178.520138c  -6.88  -3.90
iter:  31 15:53:12  -178.519540c  -6.38  -3.96
iter:  32 15:53:15  -178.520466c  -6.19  -3.96
iter:  33 15:53:18  -178.521183c  -6.29  -3.80
iter:  34 15:53:21  -178.519502c  -6.16  -3.89
iter:  35 15:53:23  -178.521581c  -5.81  -4.02c
iter:  36 15:53:30  -178.520579c  -6.25  -3.64
iter:  37 15:53:33  -178.520312c  -6.56  -3.84
iter:  38 15:53:35  -178.520042c  -6.56  -4.12c
iter:  39 15:53:38  -178.519566c  -6.96  -4.10c
iter:  40 15:53:41  -178.520111c  -7.30  -4.31c
iter:  41 15:53:44  -178.519925c  -6.51  -4.28c
iter:  42 15:53:47  -178.520001c  -6.56  -3.94
iter:  43 15:53:49  -178.519537c  -6.84  -3.86
iter:  44 15:53:52  -178.519894c  -6.64  -4.25c
iter:  45 15:53:55  -178.520169c  -6.75  -4.17c
iter:  46 15:53:58  -178.519635c  -7.42c -4.27c

Converged after 46 iterations.

Dipole moment: (-0.390250, -0.240017, 0.163426) |e|*Ang

Energy contributions relative to reference atoms: (reference = -1116960.938401)

Kinetic:       +260.321410
Potential:     -211.021283
External:        +0.000000
XC:            -230.572782
Entropy (-ST):   -4.178869
Local:           +4.842454
SIC:             +0.000000
--------------------------
Free energy:   -180.609070
Extrapolated:  -178.519635

 Band  Eigenvalues  Occupancy
    0    -65.27372    2.00000
    1    -65.25428    2.00000
    2    -65.24503    2.00000
    3    -65.24179    2.00000
    4    -65.23453    2.00000
    5    -65.23389    2.00000
    6    -65.23219    2.00000
    7    -65.22412    2.00000
    8    -65.22261    2.00000
    9    -65.02875    2.00000
   10    -65.02588    2.00000
   11    -65.02401    2.00000
   12    -65.02120    2.00000
   13    -65.01636    2.00000
   14    -65.00682    2.00000
   15    -65.00239    2.00000
   16    -65.00152    2.00000
   17    -64.99835    2.00000
   18    -64.99370    2.00000
   19    -64.93063    2.00000
   20    -64.92793    2.00000
   21    -64.92674    2.00000
   22    -64.92296    2.00000
   23    -64.91732    2.00000
   24    -64.91190    2.00000
   25    -64.90462    2.00000
   26    -64.88339    2.00000
   27    -64.88195    2.00000
   28    -64.86691    2.00000
   29    -64.84445    2.00000
   30    -64.84309    2.00000
   31    -64.84274    2.00000
   32    -64.84203    2.00000
   33    -64.84148    2.00000
   34    -64.84023    2.00000
   35    -64.83914    2.00000
   36    -64.83842    2.00000
   37    -64.83676    2.00000
   38    -64.83188    2.00000
   39    -64.83173    2.00000
   40    -64.83117    2.00000
   41    -64.83050    2.00000
   42    -64.82998    2.00000
   43    -64.82940    2.00000
   44    -64.82649    2.00000
   45    -64.82074    2.00000
   46    -64.81996    2.00000
   47    -64.80635    2.00000
   48    -64.75849    2.00000
   49    -64.75273    2.00000
   50    -64.75102    2.00000
   51    -64.75071    2.00000
   52    -64.75029    2.00000
   53    -64.74920    2.00000
   54    -64.74839    2.00000
   55    -64.74681    2.00000
   56    -64.74591    2.00000
   57    -64.74445    2.00000
   58    -64.74123    2.00000
   59    -64.73993    2.00000
   60    -64.73485    2.00000
   61    -64.73079    2.00000
   62    -64.72682    2.00000
   63    -64.72477    2.00000
   64    -64.72417    2.00000
   65    -64.72365    2.00000
   66    -64.72119    2.00000
   67    -64.72045    2.00000
   68    -64.71936    2.00000
   69    -64.71877    2.00000
   70    -64.71825    2.00000
   71    -64.71702    2.00000
   72    -64.71581    2.00000
   73    -64.71443    2.00000
   74    -64.71289    2.00000
   75    -64.71161    2.00000
   76    -64.70970    2.00000
   77    -64.70669    2.00000
   78    -64.70299    2.00000
   79    -64.69118    2.00000
   80    -64.68756    2.00000
   81    -10.45219    2.00000
   82     -9.50604    2.00000
   83     -7.46428    2.00000
   84     -6.62086    2.00000
   85     -6.61157    2.00000
   86     -6.60580    2.00000
   87     -6.60282    2.00000
   88     -6.59749    2.00000
   89     -6.56519    2.00000
   90     -6.06663    2.00000
   91     -5.58697    2.00000
   92     -5.56654    2.00000
   93     -5.55725    2.00000
   94     -5.55081    2.00000
   95     -5.55035    2.00000
   96     -5.47272    2.00000
   97     -4.85151    2.00000
   98     -4.84523    2.00000
   99     -4.84402    2.00000
  100     -4.83997    2.00000
  101     -4.83860    2.00000
  102     -4.83351    2.00000
  103     -4.65829    2.00000
  104     -4.65083    2.00000
  105     -4.63010    2.00000
  106     -4.62844    2.00000
  107     -4.62564    2.00000
  108     -4.62372    2.00000
  109     -4.58059    2.00000
  110     -4.53188    2.00000
  111     -4.52156    2.00000
  112     -4.51174    2.00000
  113     -4.50991    2.00000
  114     -4.46297    2.00000
  115     -4.31828    2.00000
  116     -4.31768    2.00000
  117     -4.31359    2.00000
  118     -4.31276    2.00000
  119     -4.07610    2.00000
  120     -4.03512    2.00000
  121     -4.03167    2.00000
  122     -4.02790    2.00000
  123     -4.02768    2.00000
  124     -3.98951    2.00000
  125     -3.62871    2.00000
  126     -3.61993    2.00000
  127     -3.60644    2.00000
  128     -3.58673    2.00000
  129     -3.56955    2.00000
  130     -3.56547    2.00000
  131     -3.56531    2.00000
  132     -3.53993    2.00000
  133     -3.52532    2.00000
  134     -3.47053    2.00000
  135     -3.45462    2.00000
  136     -3.29952    2.00000
  137     -3.29128    2.00000
  138     -3.29051    2.00000
  139     -3.25975    2.00000
  140     -3.25807    2.00000
  141     -3.24159    2.00000
  142     -3.22811    2.00000
  143     -3.22279    2.00000
  144     -3.21763    2.00000
  145     -3.21230    2.00000
  146     -3.20998    2.00000
  147     -3.20948    2.00000
  148     -3.19073    2.00000
  149     -3.18032    2.00000
  150     -3.17043    2.00000
  151     -3.16974    2.00000
  152     -3.15308    2.00000
  153     -3.08629    2.00000
  154     -3.08533    2.00000
  155     -3.08201    2.00000
  156     -3.07921    2.00000
  157     -3.07670    2.00000
  158     -3.07382    2.00000
  159     -3.03826    2.00000
  160     -3.00809    2.00000
  161     -2.99865    2.00000
  162     -2.97043    2.00000
  163     -2.95686    2.00000
  164     -2.95315    2.00000
  165     -2.95276    2.00000
  166     -2.80806    1.99998
  167     -2.66239    1.99992
  168     -2.65534    1.99991
  169     -2.63692    1.99990
  170     -2.63099    1.99989
  171     -2.62975    1.99989
  172     -2.59658    1.99985
  173     -2.37669    1.99861
  174     -2.36615    1.99845
  175     -2.34435    1.99808
  176     -2.34112    1.99801
  177     -2.31845    1.99751
  178     -2.31256    1.99736
  179     -2.30518    1.99715
  180     -2.30177    1.99705
  181     -2.30152    1.99705
  182     -2.29632    1.99689
  183     -2.29574    1.99687
  184     -2.29349    1.99680
  185     -2.14444    1.98588
  186     -2.09480    1.97690
  187     -2.09254    1.97638
  188     -2.08210    1.97382
  189     -2.07733    1.97255
  190     -2.07718    1.97251
  191     -1.95748    1.91181
  192     -1.94583    1.90145
  193     -1.92969    1.88518
  194     -1.92488    1.87986
  195     -1.91554    1.86888
  196     -1.90920    1.86089
  197     -1.90473    1.85498
  198     -1.90375    1.85367
  199     -1.90201    1.85129
  200     -1.83073    1.71844
  201     -1.82005    1.69160
  202     -1.80126    1.63935
  203     -1.79838    1.63075
  204     -1.78768    1.59746
  205     -1.78078    1.57479
  206     -1.77755    1.56389
  207     -1.77037    1.53892
  208     -1.76926    1.53497
  209     -1.76909    1.53436
  210     -1.73486    1.40119
  211     -1.73171    1.38789
  212     -1.72269    1.34894
  213     -1.72178    1.34492
  214     -1.71371    1.30887
  215     -1.71108    1.29696
  216     -1.71048    1.29421
  217     -1.70859    1.28556
  218     -1.63749    0.93829
  219     -1.62982    0.90022
  220     -1.62639    0.88323
  221     -1.58654    0.69361
  222     -1.57823    0.65646
  223     -1.57017    0.62143
  224     -1.56947    0.61844
  225     -1.56673    0.60680
  226     -1.56594    0.60345
  227     -1.56254    0.58921
  228     -1.53410    0.47824
  229     -1.52913    0.46042
  230     -1.52832    0.45754
  231     -1.35995    0.10441
  232     -0.36263    0.00001
  233      0.70248    0.00000
  234      0.91441    0.00000
  235      1.06510    0.00000
  236      1.06937    0.00000
  237      1.07845    0.00000
  238      1.92388    0.00000
  239      2.88764    0.00000
  240      3.22054    0.00000
  241      3.31256    0.00000
  242      3.64428    0.00000
  243      3.78164    0.00000
  244      3.94233    0.00000
  245      3.95224    0.00000
  246      3.95519    0.00000
  247      3.95917    0.00000
  248      4.04117    0.00000
  249      4.04440    0.00000
  250      4.05910    0.00000
  251      4.32250    0.00000
  252      4.42153    0.00000
  253      4.53938    0.00000
  254      4.73050    0.00000
  255      4.86128    0.00000
  256      5.06424    0.00000
  257      5.45581    0.00000
  258      5.64009    0.00000
  259      6.06568    0.00000
  260      6.19530    0.00000
  261      6.21060    0.00000
  262      6.28982    0.00000
  263      6.29376    0.00000
  264      6.31132    0.00000

Fermi level: -1.64985

Gap: 0.071 eV
Transition (v -> c):
  (s=0, k=0, n=217, [0.00, 0.00, 0.00]) -> (s=0, k=0, n=218, [0.00, 0.00, 0.00])
No difference between direct/indirect transitions

Forces in eV/Ang:
  0 Ni    0.03262    0.01481    0.44156
  1 Ni    0.00297    0.01602    0.59520
  2 Ni   -0.03435    0.01756    0.44920
  3 Ni   -0.00296   -0.00344    0.50929
  4 Ni    0.00662   -0.00634    0.51543
  5 Ni   -0.00428    0.02228    0.50844
  6 Ni   -0.00001   -0.01253    0.49184
  7 Ni    0.01050   -0.01085    0.61286
  8 Ni   -0.01009   -0.00655    0.61996
  9 Ni   -0.00437   -0.04059    0.14682
 10 Ni    0.05077    0.06403   -0.02833
 11 Ni   -0.03351    0.05138   -0.05702
 12 Ni    0.06799    0.00666   -0.08692
 13 Ni   -0.00215    0.03045   -0.19260
 14 Ni   -0.07418    0.01458   -0.08355
 15 Ni    0.07222   -0.02207   -0.02111
 16 Ni   -0.07272   -0.04667    0.00576
 17 Ni    0.00303   -0.00116   -0.04795
 18 Ni    0.00138    0.02376   -0.49514
 19 Ni   -0.01880   -0.08831   -0.49462
 20 Ni    0.02134   -0.08806   -0.50795
 21 Ni   -0.14277   -0.01444   -0.49322
 22 Ni    0.06396    0.21510    0.31950
 23 Ni    0.16074   -0.02096   -0.50239
 24 Ni   -0.32936    0.24128   -0.50076
 25 Ni    0.24778    0.16959   -0.39086
 26 Ni   -0.00274   -0.00017   -0.41977
 27 H    -1.14064   -0.17572   -0.41548
 28 H     1.12939   -0.35932   -0.42226

System changes: positions 

Initializing position-dependent things.

Density initialized from wave functions
                                         
                                         
                                         
                                         
                                         
                   H                     
                 H                       
                Ni    Ni    Ni           
           Ni    NNi   NNi   Ni          
       Ni    Ni    Ni                    
            Ni    Ni    Ni               
        Ni    Ni   NNi   Ni    Ni        
                                         
               Ni    Ni    Ni            
           Ni    Ni    Ni                
                                         
                                         
                                         
                                         

Positions:
   0 Ni     1.245605    0.718862   10.013317    ( 0.0000,  0.0000,  0.0000)
   1 Ni     3.733590    0.718904   10.017703    ( 0.0000,  0.0000,  0.0000)
   2 Ni     6.221413    0.718902   10.013533    ( 0.0000,  0.0000,  0.0000)
   3 Ni     2.488971    2.874032   10.015324    ( 0.0000,  0.0000,  0.0000)
   4 Ni     4.978147    2.873961   10.015483    ( 0.0000,  0.0000,  0.0000)
   5 Ni     7.466965    2.874903   10.015162    ( 0.0000,  0.0000,  0.0000)
   6 Ni     3.733507    5.029159   10.014850    ( 0.0000,  0.0000,  0.0000)
   7 Ni     6.222918    5.029306   10.018240    ( 0.0000,  0.0000,  0.0000)
   8 Ni     8.711202    5.029402   10.018415    ( 0.0000,  0.0000,  0.0000)
   9 Ni    -0.000118    1.435905   12.036430    ( 0.0000,  0.0000,  0.0000)
  10 Ni     2.490416    1.438889   12.031166    ( 0.0000,  0.0000,  0.0000)
  11 Ni     4.977088    1.438531   12.030424    ( 0.0000,  0.0000,  0.0000)
  12 Ni     1.246557    3.592921   12.029718    ( 0.0000,  0.0000,  0.0000)
  13 Ni     3.733438    3.593714   12.026283    ( 0.0000,  0.0000,  0.0000)
  14 Ni     6.220373    3.593107   12.029794    ( 0.0000,  0.0000,  0.0000)
  15 Ni     2.491106    5.747130   12.031649    ( 0.0000,  0.0000,  0.0000)
  16 Ni     4.975900    5.746516   12.032323    ( 0.0000,  0.0000,  0.0000)
  17 Ni     7.467137    5.748010   12.030689    ( 0.0000,  0.0000,  0.0000)
  18 Ni     0.000001    0.000761   14.049782    ( 0.0000,  0.0000,  0.0000)
  19 Ni     2.488411   -0.002846   14.049999    ( 0.0000,  0.0000,  0.0000)
  20 Ni     4.978738   -0.002835   14.049609    ( 0.0000,  0.0000,  0.0000)
  21 Ni     1.239754    2.155013   14.049667    ( 0.0000,  0.0000,  0.0000)
  22 Ni     3.735317    2.159976   14.071145    ( 0.0000,  0.0000,  0.0000)
  23 Ni     6.227802    2.154802   14.049425    ( 0.0000,  0.0000,  0.0000)
  24 Ni     2.478513    4.319294   14.048456    ( 0.0000,  0.0000,  0.0000)
  25 Ni     4.986167    4.317193   14.051574    ( 0.0000,  0.0000,  0.0000)
  26 Ni     7.466983    4.311150   14.051978    ( 0.0000,  0.0000,  0.0000)
  27 H      3.309982    3.228457   15.438986    ( 0.0000,  0.0000,  0.0000)
  28 H      4.156860    3.223266   15.643254    ( 0.0000,  0.0000,  0.0000)

Unit cell:
           periodic     x           y           z      points  spacing
  1. axis:    yes    7.467048    0.000000    0.000000    30     0.2156
  2. axis:    yes    3.733524    6.466653    0.000000    30     0.2156
  3. axis:    no     0.000000    0.000000   24.064546    98     0.2456

  Lengths:   7.467048   7.467048  24.064546
  Angles:   90.000000  90.000000  60.000000

Effective grid spacing dv^(1/3) = 0.2362

     iter     time        total  log10-change:
                         energy   eigst   dens
iter:   1 15:58:41  -180.805697   -2.35
iter:   2 15:58:43  -221.263363   -1.56  -2.12
iter:   3 15:58:46  -181.373636   -2.00  -1.62
iter:   4 15:58:53  -182.603963   -2.32  -2.11
iter:   5 15:58:55  -179.572463   -3.02  -1.98
iter:   6 15:58:58  -178.819988   -3.38  -2.33
iter:   7 15:59:01  -179.658581   -3.37  -2.68
iter:   8 15:59:04  -178.746858   -3.68  -2.29
iter:   9 15:59:07  -178.705542   -4.69  -2.76
iter:  10 15:59:10  -178.661329c  -4.37  -2.89
iter:  11 15:59:12  -178.662358c  -4.57  -3.13
iter:  12 15:59:15  -178.664743c  -4.31  -3.08
iter:  13 15:59:18  -178.661412c  -4.40  -3.15
iter:  14 15:59:21  -178.650841c  -4.92  -3.17
iter:  15 15:59:27  -178.647887c  -5.26  -3.25
iter:  16 15:59:30  -178.643108c  -5.66  -3.20
iter:  17 15:59:33  -178.642890c  -6.20  -3.51
iter:  18 15:59:36  -178.640801c  -5.80  -3.48
iter:  19 15:59:38  -178.642087c  -5.62  -3.62
iter:  20 15:59:41  -178.641945c  -5.29  -3.49
iter:  21 15:59:44  -178.639627c  -5.63  -3.49
iter:  22 15:59:47  -178.639672c  -5.61  -3.56
iter:  23 15:59:50  -178.638949c  -5.44  -3.64
iter:  24 15:59:53  -178.637497c  -5.85  -3.56
iter:  25 15:59:55  -178.637332c  -6.26  -3.74
iter:  26 15:59:58  -178.637105c  -6.46  -3.89
iter:  27 16:00:05  -178.636963c  -6.58  -3.83
iter:  28 16:00:08  -178.636706c  -6.76  -3.96
iter:  29 16:00:10  -178.637072c  -6.38  -3.88
iter:  30 16:00:13  -178.637620c  -6.14  -3.86
iter:  31 16:00:16  -178.635915c  -5.98  -3.74
iter:  32 16:00:19  -178.636513c  -6.13  -3.93
iter:  33 16:00:22  -178.636513c  -6.28  -3.99
iter:  34 16:00:24  -178.636454c  -6.68  -3.93
iter:  35 16:00:27  -178.636038c  -6.93  -4.09c
iter:  36 16:00:30  -178.636228c  -6.97  -4.19c
iter:  37 16:00:33  -178.636406c  -7.37  -4.06c
iter:  38 16:00:39  -178.635870c  -6.84  -4.23c
iter:  39 16:00:42  -178.635970c  -6.50  -4.11c
iter:  40 16:00:45  -178.635892c  -6.59  -4.04c
iter:  41 16:00:48  -178.636113c  -6.79  -4.06c
iter:  42 16:00:51  -178.636440c  -6.68  -4.24c
iter:  43 16:00:54  -178.635748c  -7.14  -3.99
iter:  44 16:00:57  -178.635988c  -7.58c -4.45c

Converged after 44 iterations.

Dipole moment: (-0.092306, -0.183127, 0.157879) |e|*Ang

Energy contributions relative to reference atoms: (reference = -1116960.938401)

Kinetic:       +261.676087
Potential:     -212.141622
External:        +0.000000
XC:            -230.943737
Entropy (-ST):   -4.145569
Local:           +4.846069
SIC:             +0.000000
--------------------------
Free energy:   -180.708772
Extrapolated:  -178.635988

 Band  Eigenvalues  Occupancy
    0    -65.28829    2.00000
    1    -65.26867    2.00000
    2    -65.25981    2.00000
    3    -65.25626    2.00000
    4    -65.24876    2.00000
    5    -65.24757    2.00000
    6    -65.24309    2.00000
    7    -65.23503    2.00000
    8    -65.23292    2.00000
    9    -65.03610    2.00000
   10    -65.03159    2.00000
   11    -65.02956    2.00000
   12    -65.02710    2.00000
   13    -65.02175    2.00000
   14    -65.01205    2.00000
   15    -65.00863    2.00000
   16    -65.00765    2.00000
   17    -65.00265    2.00000
   18    -64.99834    2.00000
   19    -64.93681    2.00000
   20    -64.93188    2.00000
   21    -64.92985    2.00000
   22    -64.92666    2.00000
   23    -64.92025    2.00000
   24    -64.91690    2.00000
   25    -64.90981    2.00000
   26    -64.88869    2.00000
   27    -64.88646    2.00000
   28    -64.86335    2.00000
   29    -64.84877    2.00000
   30    -64.84706    2.00000
   31    -64.84569    2.00000
   32    -64.84534    2.00000
   33    -64.84496    2.00000
   34    -64.84392    2.00000
   35    -64.84202    2.00000
   36    -64.84139    2.00000
   37    -64.84060    2.00000
   38    -64.83666    2.00000
   39    -64.83555    2.00000
   40    -64.83347    2.00000
   41    -64.83318    2.00000
   42    -64.83183    2.00000
   43    -64.83116    2.00000
   44    -64.82909    2.00000
   45    -64.82499    2.00000
   46    -64.82242    2.00000
   47    -64.80440    2.00000
   48    -64.76129    2.00000
   49    -64.75553    2.00000
   50    -64.75492    2.00000
   51    -64.75313    2.00000
   52    -64.75254    2.00000
   53    -64.75225    2.00000
   54    -64.74988    2.00000
   55    -64.74977    2.00000
   56    -64.74908    2.00000
   57    -64.74763    2.00000
   58    -64.74614    2.00000
   59    -64.74255    2.00000
   60    -64.74098    2.00000
   61    -64.73775    2.00000
   62    -64.73579    2.00000
   63    -64.73318    2.00000
   64    -64.73279    2.00000
   65    -64.73214    2.00000
   66    -64.72974    2.00000
   67    -64.72888    2.00000
   68    -64.72715    2.00000
   69    -64.72499    2.00000
   70    -64.72396    2.00000
   71    -64.72083    2.00000
   72    -64.72059    2.00000
   73    -64.72004    2.00000
   74    -64.71826    2.00000
   75    -64.71630    2.00000
   76    -64.71569    2.00000
   77    -64.71015    2.00000
   78    -64.70640    2.00000
   79    -64.69593    2.00000
   80    -64.69347    2.00000
   81    -10.31718    2.00000
   82     -9.48601    2.00000
   83     -7.46283    2.00000
   84     -6.64394    2.00000
   85     -6.63070    2.00000
   86     -6.62692    2.00000
   87     -6.62342    2.00000
   88     -6.61511    2.00000
   89     -6.57925    2.00000
   90     -6.07379    2.00000
   91     -5.60160    2.00000
   92     -5.58046    2.00000
   93     -5.57228    2.00000
   94     -5.56525    2.00000
   95     -5.56426    2.00000
   96     -5.48181    2.00000
   97     -4.86619    2.00000
   98     -4.85908    2.00000
   99     -4.85696    2.00000
  100     -4.85286    2.00000
  101     -4.84967    2.00000
  102     -4.84627    2.00000
  103     -4.67875    2.00000
  104     -4.67197    2.00000
  105     -4.64917    2.00000
  106     -4.64682    2.00000
  107     -4.64604    2.00000
  108     -4.64488    2.00000
  109     -4.59190    2.00000
  110     -4.54090    2.00000
  111     -4.52820    2.00000
  112     -4.52159    2.00000
  113     -4.51920    2.00000
  114     -4.47277    2.00000
  115     -4.33459    2.00000
  116     -4.33352    2.00000
  117     -4.33161    2.00000
  118     -4.32986    2.00000
  119     -4.09006    2.00000
  120     -4.04957    2.00000
  121     -4.04515    2.00000
  122     -4.04301    2.00000
  123     -4.03989    2.00000
  124     -4.00467    2.00000
  125     -3.63982    2.00000
  126     -3.62728    2.00000
  127     -3.61395    2.00000
  128     -3.59098    2.00000
  129     -3.57428    2.00000
  130     -3.57025    2.00000
  131     -3.56988    2.00000
  132     -3.54495    2.00000
  133     -3.52325    2.00000
  134     -3.47193    2.00000
  135     -3.45986    2.00000
  136     -3.30406    2.00000
  137     -3.30093    2.00000
  138     -3.30040    2.00000
  139     -3.26323    2.00000
  140     -3.26191    2.00000
  141     -3.24315    2.00000
  142     -3.23251    2.00000
  143     -3.22566    2.00000
  144     -3.22236    2.00000
  145     -3.21725    2.00000
  146     -3.21353    2.00000
  147     -3.21287    2.00000
  148     -3.19475    2.00000
  149     -3.18571    2.00000
  150     -3.18196    2.00000
  151     -3.18118    2.00000
  152     -3.15758    2.00000
  153     -3.10699    2.00000
  154     -3.10351    2.00000
  155     -3.10284    2.00000
  156     -3.09949    2.00000
  157     -3.09432    2.00000
  158     -3.09292    2.00000
  159     -3.04873    2.00000
  160     -3.01082    2.00000
  161     -3.00209    2.00000
  162     -2.97525    2.00000
  163     -2.96198    2.00000
  164     -2.95927    2.00000
  165     -2.95790    2.00000
  166     -2.81231    1.99998
  167     -2.67036    1.99993
  168     -2.66108    1.99992
  169     -2.64182    1.99990
  170     -2.63643    1.99990
  171     -2.63526    1.99989
  172     -2.59869    1.99985
  173     -2.37763    1.99861
  174     -2.36680    1.99846
  175     -2.34090    1.99800
  176     -2.33754    1.99793
  177     -2.32298    1.99761
  178     -2.31909    1.99751
  179     -2.31354    1.99737
  180     -2.31016    1.99728
  181     -2.30893    1.99725
  182     -2.30706    1.99720
  183     -2.30408    1.99711
  184     -2.30222    1.99706
  185     -2.14687    1.98616
  186     -2.09434    1.97671
  187     -2.09355    1.97653
  188     -2.08153    1.97357
  189     -2.07765    1.97254
  190     -2.07708    1.97239
  191     -1.96244    1.91561
  192     -1.95280    1.90746
  193     -1.93211    1.88740
  194     -1.93102    1.88623
  195     -1.92105    1.87505
  196     -1.91460    1.86727
  197     -1.90948    1.86078
  198     -1.90662    1.85703
  199     -1.90461    1.85434
  200     -1.83035    1.71665
  201     -1.82121    1.69369
  202     -1.80154    1.63911
  203     -1.79887    1.63115
  204     -1.79136    1.60800
  205     -1.78584    1.59034
  206     -1.77997    1.57085
  207     -1.77337    1.54820
  208     -1.77187    1.54295
  209     -1.77008    1.53660
  210     -1.73562    1.40286
  211     -1.73238    1.38920
  212     -1.72423    1.35411
  213     -1.72338    1.35037
  214     -1.71518    1.31389
  215     -1.71115    1.29562
  216     -1.71084    1.29420
  217     -1.70882    1.28496
  218     -1.64063    0.95215
  219     -1.62967    0.89769
  220     -1.62585    0.87881
  221     -1.58357    0.67863
  222     -1.57647    0.64715
  223     -1.56803    0.61078
  224     -1.56704    0.60660
  225     -1.56453    0.59603
  226     -1.56372    0.59264
  227     -1.55961    0.57564
  228     -1.53272    0.47196
  229     -1.52630    0.44920
  230     -1.52422    0.44198
  231     -1.35384    0.09819
  232     -0.33777    0.00000
  233      0.68794    0.00000
  234      0.92766    0.00000
  235      1.07723    0.00000
  236      1.08191    0.00000
  237      1.09238    0.00000
  238      1.94607    0.00000
  239      2.89072    0.00000
  240      3.17842    0.00000
  241      3.30698    0.00000
  242      3.64532    0.00000
  243      3.78921    0.00000
  244      3.93709    0.00000
  245      3.94699    0.00000
  246      3.94831    0.00000
  247      3.95256    0.00000
  248      4.05212    0.00000
  249      4.05572    0.00000
  250      4.06978    0.00000
  251      4.32374    0.00000
  252      4.41415    0.00000
  253      4.53790    0.00000
  254      4.73421    0.00000
  255      4.85757    0.00000
  256      5.06650    0.00000
  257      5.45006    0.00000
  258      5.62197    0.00000
  259      6.07444    0.00000
  260      6.20137    0.00000
  261      6.21644    0.00000
  262      6.29636    0.00000
  263      6.30082    0.00000
  264      6.31855    0.00000

Fermi level: -1.65021

Gap: 0.068 eV
Transition (v -> c):
  (s=0, k=0, n=217, [0.00, 0.00, 0.00]) -> (s=0, k=0, n=218, [0.00, 0.00, 0.00])
No difference between direct/indirect transitions

Forces in eV/Ang:
  0 Ni    0.02530    0.01793    0.40252
  1 Ni    0.00223    0.01564    0.55574
  2 Ni   -0.02647    0.02079    0.40851
  3 Ni   -0.00824   -0.00759    0.46605
  4 Ni    0.01152   -0.01012    0.47220
  5 Ni   -0.00388    0.01409    0.47271
  6 Ni    0.00031   -0.00498    0.44652
  7 Ni    0.00920   -0.00822    0.57312
  8 Ni   -0.00875   -0.00471    0.58064
  9 Ni   -0.00250   -0.03975    0.14505
 10 Ni    0.05951    0.06361   -0.01102
 11 Ni   -0.04306    0.05080   -0.04238
 12 Ni    0.05979    0.00075   -0.08677
 13 Ni   -0.00266    0.01493   -0.16397
 14 Ni   -0.06744    0.01161   -0.08193
 15 Ni    0.06754   -0.00584   -0.02140
 16 Ni   -0.06594   -0.03183    0.00885
 17 Ni    0.00233    0.00189   -0.04315
 18 Ni    0.00502    0.01714   -0.45847
 19 Ni   -0.01142   -0.06872   -0.47276
 20 Ni    0.01066   -0.07010   -0.48513
 21 Ni   -0.10482   -0.00968   -0.45748
 22 Ni    0.06406    0.27801    0.41260
 23 Ni    0.12418   -0.01404   -0.46673
 24 Ni   -0.29183    0.19020   -0.44231
 25 Ni    0.21473    0.12670   -0.33668
 26 Ni   -0.00260    0.00026   -0.38994
 27 H    -0.69424   -0.18275   -0.38105
 28 H     0.67684   -0.37253   -0.61804

System changes: positions 

Initializing position-dependent things.

Density initialized from wave functions
                                         
                                         
                                         
                                         
                                         
                   H                     
                 H                       
                Ni    Ni    Ni           
           Ni    NNi   NNi   Ni          
       Ni    Ni    Ni                    
            Ni    Ni    Ni               
        Ni    Ni   NNi   Ni    Ni        
               Ni    Ni    Ni            
                                         
           Ni    Ni    Ni                
                                         
                                         
                                         
                                         

Positions:
   0 Ni     1.248768    0.720748   10.060659    ( 0.0000,  0.0000,  0.0000)
   1 Ni     3.733845    0.720616   10.082383    ( 0.0000,  0.0000,  0.0000)
   2 Ni     6.218122    0.721102   10.061576    ( 0.0000,  0.0000,  0.0000)
   3 Ni     2.488078    2.873237   10.069909    ( 0.0000,  0.0000,  0.0000)
   4 Ni     4.979409    2.872871   10.070769    ( 0.0000,  0.0000,  0.0000)
   5 Ni     7.466531    2.876814   10.070348    ( 0.0000,  0.0000,  0.0000)
   6 Ni     3.733526    5.028492   10.067236    ( 0.0000,  0.0000,  0.0000)
   7 Ni     6.224031    5.028350   10.084924    ( 0.0000,  0.0000,  0.0000)
   8 Ni     8.710150    5.028842   10.085949    ( 0.0000,  0.0000,  0.0000)
   9 Ni    -0.000448    1.431441   12.052872    ( 0.0000,  0.0000,  0.0000)
  10 Ni     2.496996    1.446216   12.029660    ( 0.0000,  0.0000,  0.0000)
  11 Ni     4.972405    1.444380   12.025418    ( 0.0000,  0.0000,  0.0000)
  12 Ni     1.253563    3.593081   12.019930    ( 0.0000,  0.0000,  0.0000)
  13 Ni     3.733103    3.595797   12.007108    ( 0.0000,  0.0000,  0.0000)
  14 Ni     6.212565    3.594435   12.020547    ( 0.0000,  0.0000,  0.0000)
  15 Ni     2.498926    5.746003   12.029265    ( 0.0000,  0.0000,  0.0000)
  16 Ni     4.968217    5.742483   12.033308    ( 0.0000,  0.0000,  0.0000)
  17 Ni     7.467418    5.748143   12.025558    ( 0.0000,  0.0000,  0.0000)
  18 Ni     0.000490    0.002857   13.996169    ( 0.0000,  0.0000,  0.0000)
  19 Ni     2.486987   -0.011015   13.995075    ( 0.0000,  0.0000,  0.0000)
  20 Ni     4.980145   -0.011145   13.993249    ( 0.0000,  0.0000,  0.0000)
  21 Ni     1.227051    2.153814   13.996059    ( 0.0000,  0.0000,  0.0000)
  22 Ni     3.742443    2.189331   14.113975    ( 0.0000,  0.0000,  0.0000)
  23 Ni     6.242730    2.153031   13.994689    ( 0.0000,  0.0000,  0.0000)
  24 Ni     2.444411    4.342140   13.995546    ( 0.0000,  0.0000,  0.0000)
  25 Ni     5.011507    4.332829   14.010533    ( 0.0000,  0.0000,  0.0000)
  26 Ni     7.466703    4.311177   14.006223    ( 0.0000,  0.0000,  0.0000)
  27 H      3.226923    3.208108   15.440922    ( 0.0000,  0.0000,  0.0000)
  28 H      4.238072    3.181502   15.668913    ( 0.0000,  0.0000,  0.0000)

Unit cell:
           periodic     x           y           z      points  spacing
  1. axis:    yes    7.467048    0.000000    0.000000    30     0.2156
  2. axis:    yes    3.733524    6.466653    0.000000    30     0.2156
  3. axis:    no     0.000000    0.000000   24.064546    98     0.2456

  Lengths:   7.467048   7.467048  24.064546
  Angles:   90.000000  90.000000  60.000000

Effective grid spacing dv^(1/3) = 0.2362

     iter     time        total  log10-change:
                         energy   eigst   dens
iter:   1 16:08:53  -206.600018   -0.68
iter:   2 16:08:56  -200.398224   -0.71  -1.49
iter:   3 16:09:03  -219.439467   -1.32  -1.84
iter:   4 16:09:05  -185.299505   -1.89  -1.63
iter:   5 16:09:08  -181.672161   -1.88  -1.89
iter:   6 16:09:11  -180.589288   -2.48  -2.05
iter:   7 16:09:14  -180.160924   -2.62  -2.13
iter:   8 16:09:17  -181.032831   -2.78  -2.20
iter:   9 16:09:20  -180.195845   -2.86  -2.13
iter:  10 16:09:22  -179.761493   -2.71  -2.26
iter:  11 16:09:25  -179.633475   -2.89  -2.38
iter:  12 16:09:28  -179.410723   -3.18  -2.47
iter:  13 16:09:31  -179.576194   -3.46  -2.52
iter:  14 16:09:37  -179.300719   -3.50  -2.46
iter:  15 16:09:40  -179.253748   -3.71  -2.66
iter:  16 16:09:43  -179.272799c  -3.75  -2.70
iter:  17 16:09:46  -179.145455c  -4.01  -2.72
iter:  18 16:09:48  -179.164020c  -4.23  -3.03
iter:  19 16:09:51  -179.139907c  -4.49  -2.99
iter:  20 16:09:54  -179.135884c  -4.65  -3.13
iter:  21 16:09:57  -179.139025c  -4.82  -3.09
iter:  22 16:10:00  -179.133297c  -4.88  -3.09
iter:  23 16:10:02  -179.137767c  -4.89  -3.18
iter:  24 16:10:05  -179.123139c  -5.01  -3.13
iter:  25 16:10:08  -179.123693c  -5.29  -3.36
iter:  26 16:10:14  -179.138852c  -4.81  -3.44
iter:  27 16:10:17  -179.122109c  -5.12  -3.20
iter:  28 16:10:20  -179.121261c  -5.45  -3.59
iter:  29 16:10:23  -179.122641c  -5.54  -3.56
iter:  30 16:10:26  -179.126920c  -5.67  -3.65
iter:  31 16:10:28  -179.123178c  -5.74  -3.45
iter:  32 16:10:31  -179.122954c  -5.96  -3.71
iter:  33 16:10:34  -179.125640c  -5.81  -3.82
iter:  34 16:10:37  -179.123558c  -6.12  -3.72
iter:  35 16:10:40  -179.124315c  -6.44  -3.95
iter:  36 16:10:43  -179.124499c  -6.65  -3.92
iter:  37 16:10:49  -179.125495c  -6.30  -3.95
iter:  38 16:10:52  -179.124749c  -6.35  -3.65
iter:  39 16:10:55  -179.124382c  -6.28  -3.97
iter:  40 16:10:58  -179.125358c  -6.32  -3.91
iter:  41 16:11:00  -179.125042c  -6.48  -3.99
iter:  42 16:11:03  -179.124948c  -6.49  -4.04c
iter:  43 16:11:06  -179.125270c  -6.67  -3.98
iter:  44 16:11:09  -179.125018c  -6.65  -3.91
iter:  45 16:11:12  -179.125365c  -6.99  -4.11c
iter:  46 16:11:15  -179.124467c  -6.52  -4.04c
iter:  47 16:11:17  -179.124983c  -6.81  -4.13c
iter:  48 16:11:24  -179.125193c  -6.52  -4.20c
iter:  49 16:11:27  -179.125524c  -6.62  -4.08c
iter:  50 16:11:30  -179.124935c  -6.64  -3.91
iter:  51 16:11:32  -179.124787c  -7.17  -4.25c
iter:  52 16:11:35  -179.125042c  -7.27  -4.30c
iter:  53 16:11:38  -179.124952c  -7.72c -4.33c

Converged after 53 iterations.

Dipole moment: (1.871492, 0.214228, 0.118861) |e|*Ang

Energy contributions relative to reference atoms: (reference = -1116960.938401)

Kinetic:       +274.504218
Potential:     -221.754875
External:        +0.000000
XC:            -234.730273
Entropy (-ST):   -3.872767
Local:           +4.792361
SIC:             +0.000000
--------------------------
Free energy:   -181.061336
Extrapolated:  -179.124952

 Band  Eigenvalues  Occupancy
    0    -65.40196    2.00000
    1    -65.37960    2.00000
    2    -65.37137    2.00000
    3    -65.36809    2.00000
    4    -65.35928    2.00000
    5    -65.35440    2.00000
    6    -65.31899    2.00000
    7    -65.30877    2.00000
    8    -65.30473    2.00000
    9    -65.09613    2.00000
   10    -65.08200    2.00000
   11    -65.07931    2.00000
   12    -65.07065    2.00000
   13    -65.06458    2.00000
   14    -65.05852    2.00000
   15    -65.05488    2.00000
   16    -65.05412    2.00000
   17    -65.03723    2.00000
   18    -65.03476    2.00000
   19    -64.98675    2.00000
   20    -64.97292    2.00000
   21    -64.97131    2.00000
   22    -64.96860    2.00000
   23    -64.95748    2.00000
   24    -64.95017    2.00000
   25    -64.92973    2.00000
   26    -64.91852    2.00000
   27    -64.90937    2.00000
   28    -64.89232    2.00000
   29    -64.87687    2.00000
   30    -64.87221    2.00000
   31    -64.86658    2.00000
   32    -64.86600    2.00000
   33    -64.86457    2.00000
   34    -64.86208    2.00000
   35    -64.86167    2.00000
   36    -64.86023    2.00000
   37    -64.85918    2.00000
   38    -64.85800    2.00000
   39    -64.84925    2.00000
   40    -64.84720    2.00000
   41    -64.84431    2.00000
   42    -64.84267    2.00000
   43    -64.83919    2.00000
   44    -64.83835    2.00000
   45    -64.83207    2.00000
   46    -64.83058    2.00000
   47    -64.81583    2.00000
   48    -64.80790    2.00000
   49    -64.80349    2.00000
   50    -64.80307    2.00000
   51    -64.80260    2.00000
   52    -64.79877    2.00000
   53    -64.79408    2.00000
   54    -64.79007    2.00000
   55    -64.78504    2.00000
   56    -64.78001    2.00000
   57    -64.77969    2.00000
   58    -64.77941    2.00000
   59    -64.77579    2.00000
   60    -64.77147    2.00000
   61    -64.77028    2.00000
   62    -64.77007    2.00000
   63    -64.76909    2.00000
   64    -64.76534    2.00000
   65    -64.76412    2.00000
   66    -64.76078    2.00000
   67    -64.76010    2.00000
   68    -64.75876    2.00000
   69    -64.75335    2.00000
   70    -64.75040    2.00000
   71    -64.74564    2.00000
   72    -64.74176    2.00000
   73    -64.73610    2.00000
   74    -64.73228    2.00000
   75    -64.73090    2.00000
   76    -64.73044    2.00000
   77    -64.72800    2.00000
   78    -64.72653    2.00000
   79    -64.71126    2.00000
   80    -64.66756    2.00000
   81     -9.99821    2.00000
   82     -9.14640    2.00000
   83     -7.46018    2.00000
   84     -6.81054    2.00000
   85     -6.78891    2.00000
   86     -6.78006    2.00000
   87     -6.75868    2.00000
   88     -6.74353    2.00000
   89     -6.68284    2.00000
   90     -6.13609    2.00000
   91     -5.70626    2.00000
   92     -5.69341    2.00000
   93     -5.68013    2.00000
   94     -5.67440    2.00000
   95     -5.65464    2.00000
   96     -5.55204    2.00000
   97     -4.98207    2.00000
   98     -4.97563    2.00000
   99     -4.96258    2.00000
  100     -4.95708    2.00000
  101     -4.95187    2.00000
  102     -4.93620    2.00000
  103     -4.83716    2.00000
  104     -4.83125    2.00000
  105     -4.82699    2.00000
  106     -4.81442    2.00000
  107     -4.77708    2.00000
  108     -4.76696    2.00000
  109     -4.66303    2.00000
  110     -4.61136    2.00000
  111     -4.59231    2.00000
  112     -4.58510    2.00000
  113     -4.56100    2.00000
  114     -4.53646    2.00000
  115     -4.47669    2.00000
  116     -4.47416    2.00000
  117     -4.45916    2.00000
  118     -4.42440    2.00000
  119     -4.19893    2.00000
  120     -4.16470    2.00000
  121     -4.15497    2.00000
  122     -4.15298    2.00000
  123     -4.12607    2.00000
  124     -4.11861    2.00000
  125     -3.71693    2.00000
  126     -3.67621    2.00000
  127     -3.66239    2.00000
  128     -3.62521    2.00000
  129     -3.60068    2.00000
  130     -3.59552    2.00000
  131     -3.59411    2.00000
  132     -3.57645    2.00000
  133     -3.50961    2.00000
  134     -3.49533    2.00000
  135     -3.44628    2.00000
  136     -3.38908    2.00000
  137     -3.38602    2.00000
  138     -3.34026    2.00000
  139     -3.29909    2.00000
  140     -3.29660    2.00000
  141     -3.29150    2.00000
  142     -3.28818    2.00000
  143     -3.27544    2.00000
  144     -3.26541    2.00000
  145     -3.26336    2.00000
  146     -3.26139    2.00000
  147     -3.25705    2.00000
  148     -3.25131    2.00000
  149     -3.24043    2.00000
  150     -3.23611    2.00000
  151     -3.22826    2.00000
  152     -3.22675    2.00000
  153     -3.22540    2.00000
  154     -3.22286    2.00000
  155     -3.21935    2.00000
  156     -3.21782    2.00000
  157     -3.19656    2.00000
  158     -3.17756    2.00000
  159     -3.11125    2.00000
  160     -3.02778    2.00000
  161     -3.02350    2.00000
  162     -3.00593    2.00000
  163     -2.99669    2.00000
  164     -2.99448    2.00000
  165     -2.98395    2.00000
  166     -2.84230    1.99999
  167     -2.72522    1.99996
  168     -2.70096    1.99995
  169     -2.67713    1.99993
  170     -2.67222    1.99993
  171     -2.66533    1.99992
  172     -2.60285    1.99986
  173     -2.40864    1.99902
  174     -2.40379    1.99897
  175     -2.39566    1.99889
  176     -2.38544    1.99877
  177     -2.38119    1.99871
  178     -2.36528    1.99849
  179     -2.34526    1.99816
  180     -2.33908    1.99804
  181     -2.33339    1.99792
  182     -2.33126    1.99788
  183     -2.31094    1.99740
  184     -2.29403    1.99692
  185     -2.16944    1.98935
  186     -2.09839    1.97845
  187     -2.08986    1.97655
  188     -2.07776    1.97357
  189     -2.07290    1.97227
  190     -2.07059    1.97164
  191     -2.00374    1.94539
  192     -1.99626    1.94127
  193     -1.97609    1.92862
  194     -1.96047    1.91705
  195     -1.95490    1.91250
  196     -1.94584    1.90460
  197     -1.94291    1.90190
  198     -1.93871    1.89791
  199     -1.90166    1.85544
  200     -1.82687    1.71734
  201     -1.82601    1.71524
  202     -1.82159    1.70428
  203     -1.80900    1.67113
  204     -1.80179    1.65083
  205     -1.79908    1.64295
  206     -1.79208    1.62196
  207     -1.79051    1.61713
  208     -1.78162    1.58884
  209     -1.77157    1.55503
  210     -1.73994    1.43618
  211     -1.73792    1.42796
  212     -1.73403    1.41192
  213     -1.73105    1.39948
  214     -1.71939    1.34939
  215     -1.70878    1.30196
  216     -1.70501    1.28474
  217     -1.69908    1.25726
  218     -1.64911    1.01332
  219     -1.62246    0.88066
  220     -1.61340    0.83629
  221     -1.55797    0.58439
  222     -1.55410    0.56853
  223     -1.55089    0.55554
  224     -1.54174    0.51959
  225     -1.53787    0.50483
  226     -1.53626    0.49878
  227     -1.52832    0.46966
  228     -1.51148    0.41186
  229     -1.49624    0.36426
  230     -1.48475    0.33127
  231     -1.30251    0.06217
  232     -0.19633    0.00000
  233      0.63224    0.00000
  234      1.03070    0.00000
  235      1.17176    0.00000
  236      1.17743    0.00000
  237      1.20232    0.00000
  238      2.07174    0.00000
  239      2.88456    0.00000
  240      3.01797    0.00000
  241      3.28625    0.00000
  242      3.64806    0.00000
  243      3.83933    0.00000
  244      3.89321    0.00000
  245      3.90412    0.00000
  246      3.91166    0.00000
  247      3.92613    0.00000
  248      4.13865    0.00000
  249      4.14607    0.00000
  250      4.15392    0.00000
  251      4.32632    0.00000
  252      4.36736    0.00000
  253      4.53170    0.00000
  254      4.76062    0.00000
  255      4.83893    0.00000
  256      5.08612    0.00000
  257      5.37974    0.00000
  258      5.63485    0.00000
  259      6.13301    0.00000
  260      6.22919    0.00000
  261      6.27808    0.00000
  262      6.33621    0.00000
  263      6.34602    0.00000
  264      6.36292    0.00000

Fermi level: -1.64644

Gap: 0.027 eV
Transition (v -> c):
  (s=0, k=0, n=218, [0.00, 0.00, 0.00]) -> (s=0, k=0, n=219, [0.00, 0.00, 0.00])
No difference between direct/indirect transitions

Forces in eV/Ang:
  0 Ni   -0.03658    0.02822    0.11469
  1 Ni   -0.00708    0.01359    0.20287
  2 Ni    0.04175    0.03591    0.10130
  3 Ni   -0.03912   -0.03377    0.09797
  4 Ni    0.04108   -0.02984    0.10233
  5 Ni   -0.00331   -0.05236    0.18603
  6 Ni    0.00659    0.04994    0.07442
  7 Ni   -0.01873    0.01556    0.21619
  8 Ni    0.01681    0.00976    0.22345
  9 Ni    0.01045   -0.01794    0.11102
 10 Ni    0.12759    0.06868    0.18044
 11 Ni   -0.11702    0.06398    0.14541
 12 Ni   -0.01368   -0.05088   -0.00923
 13 Ni   -0.00287   -0.08653    0.11627
 14 Ni   -0.01010   -0.02234    0.01115
 15 Ni    0.03600    0.09623    0.02338
 16 Ni   -0.01573    0.06281    0.06879
 17 Ni   -0.00709    0.01387    0.05789
 18 Ni    0.02627   -0.02924   -0.11981
 19 Ni    0.04424    0.06971   -0.25775
 20 Ni   -0.06982    0.07610   -0.25778
 21 Ni    0.14524    0.01806   -0.15887
 22 Ni    0.07423    0.61728    0.94809
 23 Ni   -0.12778    0.03093   -0.16663
 24 Ni   -0.05811   -0.11078   -0.05805
 25 Ni    0.04417   -0.10455   -0.03375
 26 Ni   -0.00980    0.00075   -0.13790
 27 H     0.41628   -0.25680   -0.49681
 28 H    -0.49276   -0.46057   -1.28572

System changes: positions 

Initializing position-dependent things.

Density initialized from wave functions
                                         
                                         
                                         
                                         
                                         
                   H                     
                 H                       
                Ni    Ni    Ni           
           Ni    NNi   NNi   Ni          
       Ni    Ni    Ni                    
            Ni    Ni    Ni               
        Ni    Ni   NNi   Ni    Ni        
               Ni    Ni    Ni            
                                         
           Ni    Ni    Ni                
                                         
                                         
                                         
                                         

Positions:
   0 Ni     1.248962    0.721366   10.071210    ( 0.0000,  0.0000,  0.0000)
   1 Ni     3.733793    0.721075   10.097025    ( 0.0000,  0.0000,  0.0000)
   2 Ni     6.217980    0.721885   10.072072    ( 0.0000,  0.0000,  0.0000)
   3 Ni     2.487402    2.872666   10.081424    ( 0.0000,  0.0000,  0.0000)
   4 Ni     4.980182    2.872294   10.082477    ( 0.0000,  0.0000,  0.0000)
   5 Ni     7.466403    2.876580   10.083130    ( 0.0000,  0.0000,  0.0000)
   6 Ni     3.733612    5.029032   10.078062    ( 0.0000,  0.0000,  0.0000)
   7 Ni     6.223975    5.028386   10.100100    ( 0.0000,  0.0000,  0.0000)
   8 Ni     8.710195    5.028868   10.101379    ( 0.0000,  0.0000,  0.0000)
   9 Ni    -0.000398    1.430462   12.057168    ( 0.0000,  0.0000,  0.0000)
  10 Ni     2.499766    1.448476   12.031838    ( 0.0000,  0.0000,  0.0000)
  11 Ni     4.970143    1.446302   12.026535    ( 0.0000,  0.0000,  0.0000)
  12 Ni     1.254674    3.592411   12.018237    ( 0.0000,  0.0000,  0.0000)
  13 Ni     3.732987    3.595149   12.005249    ( 0.0000,  0.0000,  0.0000)
  14 Ni     6.211021    3.594323   12.019233    ( 0.0000,  0.0000,  0.0000)
  15 Ni     2.500848    5.746929   12.029235    ( 0.0000,  0.0000,  0.0000)
  16 Ni     4.966575    5.742457   12.034461    ( 0.0000,  0.0000,  0.0000)
  17 Ni     7.467378    5.748324   12.025402    ( 0.0000,  0.0000,  0.0000)
  18 Ni     0.000881    0.002885   13.984551    ( 0.0000,  0.0000,  0.0000)
  19 Ni     2.487286   -0.011599   13.981486    ( 0.0000,  0.0000,  0.0000)
  20 Ni     4.979537   -0.011645   13.979392    ( 0.0000,  0.0000,  0.0000)
  21 Ni     1.226538    2.153837   13.983880    ( 0.0000,  0.0000,  0.0000)
  22 Ni     3.744552    2.201692   14.132189    ( 0.0000,  0.0000,  0.0000)
  23 Ni     6.243891    2.153076   13.982130    ( 0.0000,  0.0000,  0.0000)
  24 Ni     2.437474    4.344980   13.984440    ( 0.0000,  0.0000,  0.0000)
  25 Ni     5.016789    4.334580   14.001629    ( 0.0000,  0.0000,  0.0000)
  26 Ni     7.466523    4.311165   13.995713    ( 0.0000,  0.0000,  0.0000)
  27 H      3.216611    3.201369   15.440580    ( 0.0000,  0.0000,  0.0000)
  28 H      4.247079    3.168432   15.669439    ( 0.0000,  0.0000,  0.0000)

Unit cell:
           periodic     x           y           z      points  spacing
  1. axis:    yes    7.467048    0.000000    0.000000    30     0.2156
  2. axis:    yes    3.733524    6.466653    0.000000    30     0.2156
  3. axis:    no     0.000000    0.000000   24.064546    98     0.2456

  Lengths:   7.467048   7.467048  24.064546
  Angles:   90.000000  90.000000  60.000000

Effective grid spacing dv^(1/3) = 0.2362

     iter     time        total  log10-change:
                         energy   eigst   dens
iter:   1 16:15:54  -180.559348   -2.06
iter:   2 16:15:56  -185.300450   -1.88  -2.12
iter:   3 16:15:59  -195.219444   -2.01  -1.98
iter:   4 16:16:02  -180.555248   -2.54  -1.76
iter:   5 16:16:05  -179.641916   -2.91  -2.23
iter:   6 16:16:11  -179.357253   -3.79  -2.45
iter:   7 16:16:14  -179.282493   -4.18  -2.66
iter:   8 16:16:16  -179.300066c  -3.76  -2.79
iter:   9 16:16:19  -179.236781c  -4.13  -2.84
iter:  10 16:16:22  -179.254984c  -4.53  -3.10
iter:  11 16:16:25  -179.220956c  -4.33  -3.04
iter:  12 16:16:27  -179.228204c  -4.75  -3.43
iter:  13 16:16:30  -179.234357c  -4.89  -3.21
iter:  14 16:16:33  -179.217536c  -5.27  -3.14
iter:  15 16:16:36  -179.216330c  -5.63  -3.56
iter:  16 16:16:39  -179.212480c  -5.68  -3.59
iter:  17 16:16:41  -179.216781c  -5.59  -3.69
iter:  18 16:16:44  -179.215296c  -5.75  -3.62
iter:  19 16:16:47  -179.212075c  -5.82  -3.65
iter:  20 16:16:50  -179.214092c  -5.62  -3.62
iter:  21 16:16:53  -179.211129c  -5.76  -3.54
iter:  22 16:16:55  -179.211960c  -6.08  -3.85
iter:  23 16:17:03  -179.210278c  -6.15  -3.97
iter:  24 16:17:06  -179.210780c  -6.31  -3.92
iter:  25 16:17:09  -179.211546c  -6.44  -3.85
iter:  26 16:17:12  -179.211630c  -6.73  -3.99
iter:  27 16:17:14  -179.211238c  -6.79  -4.00
iter:  28 16:17:17  -179.210785c  -6.59  -4.08c
iter:  29 16:17:20  -179.211842c  -6.60  -4.08c
iter:  30 16:17:23  -179.211601c  -6.51  -4.09c
iter:  31 16:17:26  -179.210838c  -6.47  -3.99
iter:  32 16:17:28  -179.210727c  -6.71  -3.91
iter:  33 16:17:31  -179.211056c  -6.83  -4.12c
iter:  34 16:17:34  -179.211351c  -6.90  -4.17c
iter:  35 16:17:40  -179.210882c  -7.35  -4.23c
iter:  36 16:17:43  -179.211071c  -7.30  -4.31c
iter:  37 16:17:46  -179.211566c  -6.96  -4.18c
iter:  38 16:17:48  -179.211355c  -7.22  -4.15c
iter:  39 16:17:51  -179.211045c  -7.12  -4.28c
iter:  40 16:17:54  -179.210762c  -7.07  -4.32c
iter:  41 16:17:57  -179.211183c  -7.25  -4.34c
iter:  42 16:18:00  -179.211128c  -7.44c -4.40c

Converged after 42 iterations.

Dipole moment: (2.153452, 0.275251, 0.111970) |e|*Ang

Energy contributions relative to reference atoms: (reference = -1116960.938401)

Kinetic:       +279.039350
Potential:     -225.373184
External:        +0.000000
XC:            -235.778036
Entropy (-ST):   -3.803088
Local:           +4.802285
SIC:             +0.000000
--------------------------
Free energy:   -181.112672
Extrapolated:  -179.211128

 Band  Eigenvalues  Occupancy
    0    -65.42750    2.00000
    1    -65.40436    2.00000
    2    -65.39580    2.00000
    3    -65.39270    2.00000
    4    -65.38322    2.00000
    5    -65.37921    2.00000
    6    -65.33337    2.00000
    7    -65.32335    2.00000
    8    -65.31958    2.00000
    9    -65.10944    2.00000
   10    -65.09365    2.00000
   11    -65.09025    2.00000
   12    -65.08159    2.00000
   13    -65.07443    2.00000
   14    -65.06831    2.00000
   15    -65.06455    2.00000
   16    -65.06333    2.00000
   17    -65.04603    2.00000
   18    -65.04189    2.00000
   19    -64.99769    2.00000
   20    -64.98237    2.00000
   21    -64.98077    2.00000
   22    -64.97906    2.00000
   23    -64.96594    2.00000
   24    -64.95865    2.00000
   25    -64.93721    2.00000
   26    -64.92488    2.00000
   27    -64.91992    2.00000
   28    -64.90029    2.00000
   29    -64.88146    2.00000
   30    -64.87838    2.00000
   31    -64.86871    2.00000
   32    -64.86822    2.00000
   33    -64.86691    2.00000
   34    -64.86548    2.00000
   35    -64.86446    2.00000
   36    -64.86184    2.00000
   37    -64.86103    2.00000
   38    -64.85953    2.00000
   39    -64.85248    2.00000
   40    -64.84996    2.00000
   41    -64.84668    2.00000
   42    -64.84462    2.00000
   43    -64.84027    2.00000
   44    -64.83867    2.00000
   45    -64.83499    2.00000
   46    -64.83116    2.00000
   47    -64.82823    2.00000
   48    -64.82127    2.00000
   49    -64.81640    2.00000
   50    -64.81486    2.00000
   51    -64.80893    2.00000
   52    -64.80731    2.00000
   53    -64.80356    2.00000
   54    -64.79916    2.00000
   55    -64.79818    2.00000
   56    -64.79359    2.00000
   57    -64.78973    2.00000
   58    -64.78473    2.00000
   59    -64.78228    2.00000
   60    -64.78137    2.00000
   61    -64.77759    2.00000
   62    -64.77181    2.00000
   63    -64.77134    2.00000
   64    -64.77040    2.00000
   65    -64.76780    2.00000
   66    -64.76283    2.00000
   67    -64.76005    2.00000
   68    -64.75954    2.00000
   69    -64.75782    2.00000
   70    -64.75349    2.00000
   71    -64.74925    2.00000
   72    -64.74533    2.00000
   73    -64.74098    2.00000
   74    -64.73608    2.00000
   75    -64.73419    2.00000
   76    -64.73216    2.00000
   77    -64.73091    2.00000
   78    -64.72814    2.00000
   79    -64.71491    2.00000
   80    -64.65640    2.00000
   81    -10.00878    2.00000
   82     -9.10376    2.00000
   83     -7.46564    2.00000
   84     -6.84545    2.00000
   85     -6.82401    2.00000
   86     -6.81346    2.00000
   87     -6.78691    2.00000
   88     -6.77190    2.00000
   89     -6.70601    2.00000
   90     -6.15284    2.00000
   91     -5.72830    2.00000
   92     -5.71878    2.00000
   93     -5.70194    2.00000
   94     -5.69810    2.00000
   95     -5.67351    2.00000
   96     -5.56923    2.00000
   97     -5.00928    2.00000
   98     -5.00158    2.00000
   99     -4.98822    2.00000
  100     -4.98218    2.00000
  101     -4.97856    2.00000
  102     -4.95733    2.00000
  103     -4.87101    2.00000
  104     -4.86628    2.00000
  105     -4.86340    2.00000
  106     -4.84747    2.00000
  107     -4.80932    2.00000
  108     -4.79550    2.00000
  109     -4.67944    2.00000
  110     -4.62846    2.00000
  111     -4.60685    2.00000
  112     -4.59854    2.00000
  113     -4.57061    2.00000
  114     -4.54873    2.00000
  115     -4.50516    2.00000
  116     -4.50311    2.00000
  117     -4.48892    2.00000
  118     -4.44641    2.00000
  119     -4.22696    2.00000
  120     -4.19198    2.00000
  121     -4.17994    2.00000
  122     -4.17855    2.00000
  123     -4.14712    2.00000
  124     -4.14013    2.00000
  125     -3.73650    2.00000
  126     -3.68716    2.00000
  127     -3.67216    2.00000
  128     -3.63538    2.00000
  129     -3.60683    2.00000
  130     -3.59879    2.00000
  131     -3.59756    2.00000
  132     -3.58186    2.00000
  133     -3.51841    2.00000
  134     -3.48895    2.00000
  135     -3.44135    2.00000
  136     -3.41085    2.00000
  137     -3.40782    2.00000
  138     -3.36009    2.00000
  139     -3.32479    2.00000
  140     -3.32065    2.00000
  141     -3.31427    2.00000
  142     -3.30605    2.00000
  143     -3.30027    2.00000
  144     -3.29376    2.00000
  145     -3.28962    2.00000
  146     -3.27377    2.00000
  147     -3.26688    2.00000
  148     -3.26329    2.00000
  149     -3.25803    2.00000
  150     -3.24493    2.00000
  151     -3.23869    2.00000
  152     -3.23262    2.00000
  153     -3.23092    2.00000
  154     -3.22968    2.00000
  155     -3.22749    2.00000
  156     -3.22435    2.00000
  157     -3.19736    2.00000
  158     -3.18029    2.00000
  159     -3.12156    2.00000
  160     -3.03139    2.00000
  161     -3.02862    2.00000
  162     -3.01265    2.00000
  163     -3.00272    2.00000
  164     -3.00065    2.00000
  165     -2.98793    2.00000
  166     -2.84728    1.99999
  167     -2.73636    1.99996
  168     -2.71116    1.99995
[...]
  5 Ni   -0.02382    0.03152    0.07646
  6 Ni    0.01506   -0.01161    0.07251
  7 Ni   -0.00713   -0.00811    0.04303
  8 Ni   -0.01027   -0.00002    0.01987
  9 Ni   -0.02421    0.02188    0.03169
 10 Ni    0.02805   -0.02222    0.00078
 11 Ni    0.01915    0.00581    0.02979
 12 Ni    0.00873    0.01202    0.02254
 13 Ni   -0.02920    0.02962    0.01202
 14 Ni   -0.03659   -0.02041    0.02188
 15 Ni   -0.03526   -0.03846    0.03594
 16 Ni   -0.00331    0.02792    0.01399
 17 Ni    0.01352    0.02567    0.01083
 18 Ni    0.01847    0.02261   -0.00416
 19 Ni    0.01146    0.01058    0.01114
 20 Ni   -0.02485   -0.01909    0.02667
 21 Ni   -0.00570    0.01577    0.02471
 22 Ni    0.02390   -0.01012    0.01098
 23 Ni   -0.01502   -0.01101    0.04374
 24 Ni    0.04774   -0.01906    0.15101
 25 Ni   -0.01284    0.01331    0.05352
 26 Ni    0.05607    0.02215   -0.01262
 27 H    -0.21885    0.18818   -0.53247
 28 H     0.18833   -0.24938   -0.33400

System changes: positions 

Initializing position-dependent things.

Density initialized from wave functions
                                         
                                         
                                         
                                         
                                         
                                         
                 HH                      
                Ni    Ni    Ni           
            Ni   NNi   Ni    Ni          
             Ni   NNi  Ni                
       Ni   Ni          Ni               
        Ni    Ni   NNi    Ni    Ni       
               Ni    Ni    Ni            
                                         
           Ni   Ni     Ni                
                                         
                                         
                                         
                                         

Positions:
   0 Ni     1.268023    0.900892   10.137012    ( 0.0000,  0.0000,  0.0000)
   1 Ni     3.625095    0.639762   10.106553    ( 0.0000,  0.0000,  0.0000)
   2 Ni     6.389118    0.647670   10.065913    ( 0.0000,  0.0000,  0.0000)
   3 Ni     2.648676    2.808373   10.110983    ( 0.0000,  0.0000,  0.0000)
   4 Ni     4.989504    2.981374   10.012732    ( 0.0000,  0.0000,  0.0000)
   5 Ni     7.346676    2.816740   10.106953    ( 0.0000,  0.0000,  0.0000)
   6 Ni     3.631026    4.921789   10.162928    ( 0.0000,  0.0000,  0.0000)
   7 Ni     6.265798    5.015889   10.057752    ( 0.0000,  0.0000,  0.0000)
   8 Ni     8.698810    5.172831   10.110736    ( 0.0000,  0.0000,  0.0000)
   9 Ni    -0.011162    1.451604   12.272509    ( 0.0000,  0.0000,  0.0000)
  10 Ni     2.590130    1.496086   12.167309    ( 0.0000,  0.0000,  0.0000)
  11 Ni     4.984747    1.479355   11.797907    ( 0.0000,  0.0000,  0.0000)
  12 Ni     1.279653    3.590036   11.827835    ( 0.0000,  0.0000,  0.0000)
  13 Ni     3.728235    3.604185   12.362962    ( 0.0000,  0.0000,  0.0000)
  14 Ni     6.196862    3.628446   12.023316    ( 0.0000,  0.0000,  0.0000)
  15 Ni     2.476728    5.760884   12.095486    ( 0.0000,  0.0000,  0.0000)
  16 Ni     4.970931    5.808254   11.880688    ( 0.0000,  0.0000,  0.0000)
  17 Ni     7.448629    5.727004   12.186400    ( 0.0000,  0.0000,  0.0000)
  18 Ni     0.009025   -0.122200   14.007477    ( 0.0000,  0.0000,  0.0000)
  19 Ni     2.459206    0.089440   14.038035    ( 0.0000,  0.0000,  0.0000)
  20 Ni     4.989048    0.187714   13.942077    ( 0.0000,  0.0000,  0.0000)
  21 Ni     1.304897    2.265477   13.992477    ( 0.0000,  0.0000,  0.0000)
  22 Ni     3.692322    2.217316   14.460573    ( 0.0000,  0.0000,  0.0000)
  23 Ni     6.084461    2.263390   13.985169    ( 0.0000,  0.0000,  0.0000)
  24 Ni     2.359132    4.420762   14.185009    ( 0.0000,  0.0000,  0.0000)
  25 Ni     5.131925    4.451815   14.051699    ( 0.0000,  0.0000,  0.0000)
  26 Ni     7.473249    4.221152   13.996709    ( 0.0000,  0.0000,  0.0000)
  27 H      3.353947    3.433465   15.366504    ( 0.0000,  0.0000,  0.0000)
  28 H      4.080511    2.188860   15.888662    ( 0.0000,  0.0000,  0.0000)

Unit cell:
           periodic     x           y           z      points  spacing
  1. axis:    yes    7.467048    0.000000    0.000000    30     0.2156
  2. axis:    yes    3.733524    6.466653    0.000000    30     0.2156
  3. axis:    no     0.000000    0.000000   24.064546    98     0.2456

  Lengths:   7.467048   7.467048  24.064546
  Angles:   90.000000  90.000000  60.000000

Effective grid spacing dv^(1/3) = 0.2362

     iter     time        total  log10-change:
                         energy   eigst   dens
iter:   1 21:55:34  -180.455980   -3.17
iter:   2 21:55:37  -180.887213   -3.42  -3.12
iter:   3 21:55:40  -180.510140   -3.81  -2.48
iter:   4 21:55:42  -180.440423   -4.26  -2.92
iter:   5 21:55:45  -180.434663c  -5.30  -3.16
iter:   6 21:55:48  -180.429748c  -5.64  -3.30
iter:   7 21:55:51  -180.430410c  -5.39  -3.50
iter:   8 21:55:57  -180.428330c  -5.70  -3.73
iter:   9 21:56:00  -180.428513c  -6.00  -3.86
iter:  10 21:56:03  -180.428359c  -6.31  -3.90
iter:  11 21:56:06  -180.429231c  -5.93  -3.91
iter:  12 21:56:08  -180.428301c  -6.86  -3.78
iter:  13 21:56:11  -180.428162c  -6.54  -4.03c
iter:  14 21:56:14  -180.428150c  -6.70  -4.01c
iter:  15 21:56:17  -180.427839c  -7.20  -4.24c
iter:  16 21:56:20  -180.427818c  -7.13  -4.37c
iter:  17 21:56:23  -180.427943c  -7.25  -4.38c
iter:  18 21:56:26  -180.427881c  -7.21  -4.38c
iter:  19 21:56:32  -180.427827c  -7.43c -4.41c

Converged after 19 iterations.

Dipole moment: (1.195479, -3.040449, 0.011462) |e|*Ang

Energy contributions relative to reference atoms: (reference = -1116960.938401)

Kinetic:       +270.370056
Potential:     -218.537596
External:        +0.000000
XC:            -235.583056
Entropy (-ST):   -3.054057
Local:           +4.849797
SIC:             +0.000000
--------------------------
Free energy:   -181.954856
Extrapolated:  -180.427827

 Band  Eigenvalues  Occupancy
    0    -65.55240    2.00000
    1    -65.51410    2.00000
    2    -65.49972    2.00000
    3    -65.49546    2.00000
    4    -65.49121    2.00000
    5    -65.48469    2.00000
    6    -65.47821    2.00000
    7    -65.46938    2.00000
    8    -65.44766    2.00000
    9    -65.28599    2.00000
   10    -65.28157    2.00000
   11    -65.27198    2.00000
   12    -65.26238    2.00000
   13    -65.25747    2.00000
   14    -65.25388    2.00000
   15    -65.24242    2.00000
   16    -65.23647    2.00000
   17    -65.23362    2.00000
   18    -65.22734    2.00000
   19    -65.22230    2.00000
   20    -65.22029    2.00000
   21    -65.21787    2.00000
   22    -65.20157    2.00000
   23    -65.19917    2.00000
   24    -65.18929    2.00000
   25    -65.18614    2.00000
   26    -65.18245    2.00000
   27    -65.17420    2.00000
   28    -65.17095    2.00000
   29    -65.16559    2.00000
   30    -65.16010    2.00000
   31    -65.15625    2.00000
   32    -65.15259    2.00000
   33    -65.14725    2.00000
   34    -65.14216    2.00000
   35    -65.13158    2.00000
   36    -65.12931    2.00000
   37    -65.11952    2.00000
   38    -65.11578    2.00000
   39    -65.11061    2.00000
   40    -65.10786    2.00000
   41    -65.10392    2.00000
   42    -65.10231    2.00000
   43    -65.09488    2.00000
   44    -65.09093    2.00000
   45    -65.07532    2.00000
   46    -65.07355    2.00000
   47    -65.06982    2.00000
   48    -65.06413    2.00000
   49    -65.06157    2.00000
   50    -65.05631    2.00000
   51    -65.04361    2.00000
   52    -65.03920    2.00000
   53    -65.03531    2.00000
   54    -65.03413    2.00000
   55    -65.03300    2.00000
   56    -65.02422    2.00000
   57    -65.01344    2.00000
   58    -64.99694    2.00000
   59    -64.99376    2.00000
   60    -64.98965    2.00000
   61    -64.98653    2.00000
   62    -64.95792    2.00000
   63    -64.95045    2.00000
   64    -64.92141    2.00000
   65    -64.90632    2.00000
   66    -64.88466    2.00000
   67    -64.86962    2.00000
   68    -64.86772    2.00000
   69    -64.86419    2.00000
   70    -64.85669    2.00000
   71    -64.85484    2.00000
   72    -64.84593    2.00000
   73    -64.84501    2.00000
   74    -64.84188    2.00000
   75    -64.82959    2.00000
   76    -64.82726    2.00000
   77    -64.81714    2.00000
   78    -64.80435    2.00000
   79    -64.80218    2.00000
   80    -64.76784    2.00000
   81    -10.02422    2.00000
   82     -8.37937    2.00000
   83     -7.34118    2.00000
   84     -7.01026    2.00000
   85     -6.96320    2.00000
   86     -6.90863    2.00000
   87     -6.85407    2.00000
   88     -6.83804    2.00000
   89     -6.67827    2.00000
   90     -6.19693    2.00000
   91     -5.92462    2.00000
   92     -5.88956    2.00000
   93     -5.86824    2.00000
   94     -5.85525    2.00000
   95     -5.83596    2.00000
   96     -5.67705    2.00000
   97     -5.28926    2.00000
   98     -5.18656    2.00000
   99     -5.12916    2.00000
  100     -5.09326    2.00000
  101     -5.07288    2.00000
  102     -5.05589    2.00000
  103     -5.05134    2.00000
  104     -5.03713    2.00000
  105     -5.00395    2.00000
  106     -4.99004    2.00000
  107     -4.98079    2.00000
  108     -4.96614    2.00000
  109     -4.94864    2.00000
  110     -4.92249    2.00000
  111     -4.90071    2.00000
  112     -4.80740    2.00000
  113     -4.78876    2.00000
  114     -4.72657    2.00000
  115     -4.64405    2.00000
  116     -4.60348    2.00000
  117     -4.59403    2.00000
  118     -4.58968    2.00000
  119     -4.52611    2.00000
  120     -4.41836    2.00000
  121     -4.39076    2.00000
  122     -4.37270    2.00000
  123     -4.32295    2.00000
  124     -4.29530    2.00000
  125     -4.13159    2.00000
  126     -4.07032    2.00000
  127     -4.04877    2.00000
  128     -3.97883    2.00000
  129     -3.96955    2.00000
  130     -3.82321    2.00000
  131     -3.80192    2.00000
  132     -3.78385    2.00000
  133     -3.74324    2.00000
  134     -3.70535    2.00000
  135     -3.70172    2.00000
  136     -3.68371    2.00000
  137     -3.67730    2.00000
  138     -3.65414    2.00000
  139     -3.64919    2.00000
  140     -3.62232    2.00000
  141     -3.60311    2.00000
  142     -3.59432    2.00000
  143     -3.57959    2.00000
  144     -3.56361    2.00000
  145     -3.55323    2.00000
  146     -3.53925    2.00000
  147     -3.52531    2.00000
  148     -3.48401    2.00000
  149     -3.47100    2.00000
  150     -3.43811    2.00000
  151     -3.41320    2.00000
  152     -3.40685    2.00000
  153     -3.39614    2.00000
  154     -3.36077    2.00000
  155     -3.34128    2.00000
  156     -3.32634    2.00000
  157     -3.30185    2.00000
  158     -3.25948    2.00000
  159     -3.22462    2.00000
  160     -3.22064    2.00000
  161     -3.20591    2.00000
  162     -3.17875    2.00000
  163     -3.14431    2.00000
  164     -3.12803    2.00000
  165     -3.08896    2.00000
  166     -3.06748    1.99999
  167     -3.01649    1.99999
  168     -2.99653    1.99999
  169     -2.89880    1.99997
  170     -2.86414    1.99996
  171     -2.83155    1.99995
  172     -2.78360    1.99991
  173     -2.73206    1.99986
  174     -2.70525    1.99981
  175     -2.66408    1.99972
  176     -2.64120    1.99964
  177     -2.62678    1.99959
  178     -2.60485    1.99949
  179     -2.54558    1.99907
  180     -2.51666    1.99876
  181     -2.49502    1.99846
  182     -2.47187    1.99806
  183     -2.46222    1.99787
  184     -2.42734    1.99698
  185     -2.40671    1.99629
  186     -2.37116    1.99471
  187     -2.35980    1.99407
  188     -2.35116    1.99354
  189     -2.33153    1.99214
  190     -2.31136    1.99040
  191     -2.27052    1.98559
  192     -2.26705    1.98508
  193     -2.23299    1.97909
  194     -2.21195    1.97426
  195     -2.18668    1.96698
  196     -2.16676    1.95985
  197     -2.16164    1.95778
  198     -2.14983    1.95262
  199     -2.12553    1.93998
  200     -2.12183    1.93779
  201     -2.08918    1.91478
  202     -2.06628    1.89402
  203     -2.06440    1.89212
  204     -2.02802    1.84836
  205     -1.99323    1.79184
  206     -1.96664    1.73678
  207     -1.95097    1.69885
  208     -1.93596    1.65841
  209     -1.92895    1.63808
  210     -1.91737    1.60250
  211     -1.89012    1.50855
  212     -1.88412    1.48598
  213     -1.85779    1.37923
  214     -1.83575    1.28116
  215     -1.81729    1.19414
  216     -1.80071    1.11327
  217     -1.78522    1.03626
  218     -1.77469    0.98363
  219     -1.74937    0.85803
  220     -1.69670    0.61468
  221     -1.67380    0.52169
  222     -1.67227    0.51580
  223     -1.65965    0.46899
  224     -1.63862    0.39771
  225     -1.61256    0.32115
  226     -1.60314    0.29653
  227     -1.58462    0.25274
  228     -1.55768    0.19899
  229     -1.53752    0.16568
  230     -1.50973    0.12805
  231     -1.28799    0.01479
  232     -0.06202    0.00000
  233      0.30934    0.00000
  234      0.84396    0.00000
  235      0.99681    0.00000
  236      1.05304    0.00000
  237      1.09638    0.00000
  238      1.99334    0.00000
  239      2.71534    0.00000
  240      3.07741    0.00000
  241      3.31366    0.00000
  242      3.50832    0.00000
  243      3.54763    0.00000
  244      3.60614    0.00000
  245      3.63784    0.00000
  246      3.69426    0.00000
  247      3.70514    0.00000
  248      3.77849    0.00000
  249      3.88244    0.00000
  250      4.08111    0.00000
  251      4.18171    0.00000
  252      4.23308    0.00000
  253      4.57871    0.00000
  254      4.74401    0.00000
  255      5.07086    0.00000
  256      5.28622    0.00000
  257      5.38955    0.00000
  258      5.86463    0.00000
  259      6.10578    0.00000
  260      6.16931    0.00000
  261      6.23009    0.00000
  262      6.31851    0.00000
  263      6.33657    0.00000
  264      6.36598    0.00000

Fermi level: -1.77796

Gap: 0.011 eV
Transition (v -> c):
  (s=0, k=0, n=217, [0.00, 0.00, 0.00]) -> (s=0, k=0, n=218, [0.00, 0.00, 0.00])
No difference between direct/indirect transitions

Forces in eV/Ang:
  0 Ni    0.02579    0.01250    0.00394
  1 Ni   -0.03405    0.00569    0.02905
  2 Ni   -0.00067    0.00371    0.08283
  3 Ni   -0.00422    0.01391    0.05633
  4 Ni    0.02977   -0.01842    0.00194
  5 Ni   -0.02511    0.02449    0.08604
  6 Ni    0.01733   -0.01841    0.07035
  7 Ni   -0.02101   -0.01022    0.05836
  8 Ni    0.01431   -0.00265    0.02013
  9 Ni   -0.01609    0.02202    0.02515
 10 Ni    0.03290   -0.02767   -0.00589
 11 Ni    0.03249   -0.00107    0.03028
 12 Ni   -0.00507    0.00973    0.01615
 13 Ni   -0.02323    0.03020    0.00124
 14 Ni   -0.02510   -0.03435   -0.01626
 15 Ni   -0.04824   -0.04923    0.02033
 16 Ni   -0.01359    0.01838    0.00540
 17 Ni    0.00999    0.04655    0.01313
 18 Ni    0.02633    0.03569    0.00728
 19 Ni    0.03384   -0.00673    0.01750
 20 Ni   -0.04433   -0.01538    0.01843
 21 Ni   -0.02448    0.01025    0.03093
 22 Ni    0.02425   -0.04683   -0.01789
 23 Ni   -0.00840   -0.02037    0.05090
 24 Ni    0.04259   -0.00011    0.15889
 25 Ni   -0.02492    0.02425    0.07383
 26 Ni    0.05872    0.02808   -0.00474
 27 H    -0.21891    0.22039   -0.50183
 28 H     0.18506   -0.25369   -0.32276

Timing:                                      incl.     excl.
-------------------------------------------------------------------
Density initialized from wave functions:    25.807    25.806   0.1% |
 Symmetrize density:                         0.001     0.001   0.0% |
Forces:                                    112.998   112.998   0.5% |
Hamiltonian:                                69.787     0.108   0.0% |
 Atomic:                                    42.438     0.117   0.0% |
  XC Correction:                            42.320    42.320   0.2% |
 Calculate atomic Hamiltonians:             12.269    12.269   0.1% |
 Communicate:                                0.000     0.000   0.0% |
 Initialize Hamiltonian:                     0.001     0.001   0.0% |
 Poisson:                                    0.159     0.159   0.0% |
 XC 3D grid:                                14.813    14.813   0.1% |
LCAO initialization:                        11.924     0.034   0.0% |
 LCAO eigensolver:                           1.177     0.000   0.0% |
  Calculate projections:                     0.002     0.002   0.0% |
  DenseAtomicCorrection:                     0.003     0.003   0.0% |
  Distribute overlap matrix:                 0.000     0.000   0.0% |
  Orbital Layouts:                           0.011     0.011   0.0% |
  Potential matrix:                          1.160     1.160   0.0% |
 LCAO to grid:                              10.252    10.252   0.0% |
 Set positions (LCAO WFS):                   0.461     0.094   0.0% |
  Basic WFS set positions:                   0.000     0.000   0.0% |
  Basis functions set positions:             0.000     0.000   0.0% |
  P tci:                                     0.235     0.235   0.0% |
  ST tci:                                    0.119     0.119   0.0% |
  mktci:                                     0.012     0.012   0.0% |
PWDescriptor:                                0.002     0.002   0.0% |
Redistribute:                                0.090     0.090   0.0% |
SCF-cycle:                                7950.390     1.748   0.0% |
 Davidson:                                4450.649   684.169   2.9% ||
  Apply H:                                 678.694   663.537   2.8% ||
   HMM T:                                   15.157    15.157   0.1% |
  Subspace diag:                           847.272     0.231   0.0% |
   calc_h_matrix:                          709.997    88.469   0.4% |
    Apply H:                               621.528   607.274   2.6% ||
     HMM T:                                 14.254    14.254   0.1% |
   diagonalize:                             38.184    38.184   0.2% |
   rotate_psi:                              98.860    98.860   0.4% |
  calc. matrices:                         1774.377   404.247   1.7% ||
   Apply H:                               1370.130  1339.801   5.7% |-|
    HMM T:                                  30.329    30.329   0.1% |
  diagonalize:                             265.498   265.498   1.1% |
  rotate_psi:                              200.639   200.639   0.9% |
 Density:                                  978.389     0.029   0.0% |
  Atomic density matrices:                   4.065     4.065   0.0% |
  Mix:                                     601.415   601.415   2.6% ||
  Multipole moments:                         0.750     0.750   0.0% |
  Pseudo density:                          372.130   372.110   1.6% ||
   Symmetrize density:                       0.019     0.019   0.0% |
 Hamiltonian:                             2514.047     3.706   0.0% |
  Atomic:                                 1518.840     7.712   0.0% |
   XC Correction:                         1511.128  1511.128   6.5% |--|
  Calculate atomic Hamiltonians:           458.487   458.487   2.0% ||
  Communicate:                               0.014     0.014   0.0% |
  Poisson:                                   5.556     5.556   0.0% |
  XC 3D grid:                              527.445   527.445   2.3% ||
 Orthonormalize:                             5.557     0.014   0.0% |
  calc_s_matrix:                             0.877     0.877   0.0% |
  inverse-cholesky:                          0.368     0.368   0.0% |
  projections:                               2.866     2.866   0.0% |
  rotate_psi_s:                              1.432     1.432   0.0% |
Set symmetry:                                0.000     0.000   0.0% |
Other:                                   15146.057 15146.057  65.0% |-------------------------|
-------------------------------------------------------------------
Total:                                             23317.056 100.0%

Date: Sun Mar 30 21:56:34 2025
