
  ___ ___ ___ _ _ _  
 |   |   |_  | | | | 
 | | | | | . | | | | 
 |__ |  _|___|_____|  24.6.0
 |___|_|             

User:   kerem@DESKTOP-CMKTO4T
Date:   Sat Mar 29 16:42:16 2025
Arch:   x86_64
Pid:    11878
CWD:    /home/kerem
Python: 3.12.9
gpaw:   /home/kerem/miniconda3/envs/gpaw-env/lib/python3.12/site-packages/gpaw
_gpaw:  /home/kerem/miniconda3/envs/gpaw-env/lib/python3.12/site-packages/
        _gpaw.cpython-312-x86_64-linux-gnu.so
ase:    /home/kerem/miniconda3/envs/gpaw-env/lib/python3.12/site-packages/ase (version 3.24.0)
numpy:  /home/kerem/miniconda3/envs/gpaw-env/lib/python3.12/site-packages/numpy (version 1.26.4)
scipy:  /home/kerem/miniconda3/envs/gpaw-env/lib/python3.12/site-packages/scipy (version 1.15.2)
libxc:  6.2.2
units:  Angstrom and eV
cores: 1
OpenMP: True
OMP_NUM_THREADS: 1

Input parameters:
  kpts: [3 3 1]
  mode: {ecut: 400.0,
         name: pw}
  xc: PBE

System changes: positions, numbers, cell, pbc, initial_charges, initial_magmoms 

Initialize ...

species:
  Ni:
    name: Nickel
    id: 0d9f38a9d6e76a2886f07bb4381f212b
    Z: 28.0
    valence: 16
    core: 12
    charge: 0.0
    file: /home/kerem/miniconda3/envs/gpaw-env/share/gpaw/Ni.PBE.gz
    compensation charges: {type: gauss,
                           rc: 0.36,
                           lmax: 2}
    cutoffs: {filter: 2.14,
              core: 1.98}
    projectors:
      #              energy  rcut
      - 4s(2.00)    -5.642   1.164
      - 3p(6.00)   -71.394   1.207
      - 4p(0.00)    -1.226   1.207
      - 3d(8.00)    -8.875   1.138
      -  s          21.570   1.164
      -  d          18.337   1.138
  
    # Using partial waves for Ni as LCAO basis

Reference energy: -1116935.958077  # eV

Spin-paired calculation

Convergence criteria:
 Maximum [total energy] change in last 3 cyles: 0.0005 eV / valence electron
 Maximum integral of absolute [dens]ity change: 0.0001 electrons / valence electron
 Maximum integral of absolute [eigenst]ate change: 4e-08 eV^2 / valence electron
 Maximum number of scf [iter]ations: 333
 (Square brackets indicate name in SCF output, whereas a 'c' in
 the SCF output indicates the quantity has converged.)

Symmetries present (total): 6

  ( 1  0  0)  ( 1 -1  0)  ( 0  1  0)  ( 0 -1  0)  (-1  1  0)  (-1  0  0)
  ( 0  1  0)  ( 0 -1  0)  ( 1  0  0)  ( 1 -1  0)  (-1  0  0)  (-1  1  0)
  ( 0  0  1)  ( 0  0  1)  ( 0  0  1)  ( 0  0  1)  ( 0  0  1)  ( 0  0  1)

9 k-points: 3 x 3 x 1 Monkhorst-Pack grid
3 k-points in the irreducible part of the Brillouin zone
       k-points in crystal coordinates                weights
   0:     0.00000000    0.00000000    0.00000000          1/9
   1:     0.33333333   -0.33333333    0.00000000          2/9
   2:     0.33333333    0.33333333    0.00000000          6/9

Wave functions: Plane wave expansion
  Cutoff energy: 400.000 eV
  Number of coefficients (min, max): 21055, 21168
  Pulay-stress correction: 0.000000 eV/Ang^3 (de/decut=0.000000)
  Using FFTW library
  ScaLapack parameters: grid=1x1, blocksize=None
  Wavefunction extrapolation:
    Improved wavefunction reuse through dual PAW basis 

Occupation numbers: Fermi-Dirac:
  width: 0.1000  # eV
 

Eigensolver
   Davidson(niter=2) 

Densities:
  Coarse grid: 35*35*112 grid
  Fine grid: 70*70*224 grid
  Total Charge: 0.000000 

Density mixing:
  Method: separate
  Backend: pulay
  Linear mixing parameter: 0.05
  old densities: 5
  Damping of long wavelength oscillations: 50 

Hamiltonian:
  XC and Coulomb potentials evaluated on a 70*70*224 grid
  Using the PBE Exchange-Correlation functional
  External potential:
    NoExternalPotential
 

XC parameters: PBE with 2 nearest neighbor stencil

Memory estimate:
  Process memory now: 257.18 MiB
  Calculator: 450.93 MiB
    Density: 60.01 MiB
      Arrays: 27.22 MiB
      Localized functions: 22.33 MiB
      Mixer: 10.47 MiB
    Hamiltonian: 18.25 MiB
      Arrays: 17.79 MiB
      XC: 0.00 MiB
      Poisson: 0.00 MiB
      vbar: 0.46 MiB
    Wavefunctions: 372.67 MiB
      Arrays psit_nG: 255.81 MiB
      Eigensolver: 97.53 MiB
      Projections: 5.87 MiB
      Projectors: 7.25 MiB
      PW-descriptor: 6.20 MiB

Total number of cores used: 1

Number of atoms: 27
Number of atomic orbitals: 324
Number of bands in calculation: 264
Number of valence electrons: 432
Bands to converge: occupied

... initialized

Initializing position-dependent things.

Density initialized from atomic densities
Creating initial wave functions:
  264 bands from LCAO basis set

                                         
                                         
                                         
                                         
                                         
                Ni    Ni    Ni           
           Ni    NNi   NNi   Ni          
       Ni    Ni    Ni                    
            Ni    Ni    Ni               
        Ni    Ni   NNi   Ni    Ni        
                                         
               Ni    Ni    Ni            
           Ni    Ni    Ni                
                                         
                                         
                                         
                                         

Positions:
   0 Ni     1.244508    0.718517   10.000000    ( 0.0000,  0.0000,  0.0000)
   1 Ni     3.733524    0.718517   10.000000    ( 0.0000,  0.0000,  0.0000)
   2 Ni     6.222540    0.718517   10.000000    ( 0.0000,  0.0000,  0.0000)
   3 Ni     2.489016    2.874068   10.000000    ( 0.0000,  0.0000,  0.0000)
   4 Ni     4.978032    2.874068   10.000000    ( 0.0000,  0.0000,  0.0000)
   5 Ni     7.467048    2.874068   10.000000    ( 0.0000,  0.0000,  0.0000)
   6 Ni     3.733524    5.029619   10.000000    ( 0.0000,  0.0000,  0.0000)
   7 Ni     6.222540    5.029619   10.000000    ( 0.0000,  0.0000,  0.0000)
   8 Ni     8.711556    5.029619   10.000000    ( 0.0000,  0.0000,  0.0000)
   9 Ni     0.000000    1.437034   12.032273    ( 0.0000,  0.0000,  0.0000)
  10 Ni     2.489016    1.437034   12.032273    ( 0.0000,  0.0000,  0.0000)
  11 Ni     4.978032    1.437034   12.032273    ( 0.0000,  0.0000,  0.0000)
  12 Ni     1.244508    3.592585   12.032273    ( 0.0000,  0.0000,  0.0000)
  13 Ni     3.733524    3.592585   12.032273    ( 0.0000,  0.0000,  0.0000)
  14 Ni     6.222540    3.592585   12.032273    ( 0.0000,  0.0000,  0.0000)
  15 Ni     2.489016    5.748136   12.032273    ( 0.0000,  0.0000,  0.0000)
  16 Ni     4.978032    5.748136   12.032273    ( 0.0000,  0.0000,  0.0000)
  17 Ni     7.467048    5.748136   12.032273    ( 0.0000,  0.0000,  0.0000)
  18 Ni     0.000000    0.000000   14.064546    ( 0.0000,  0.0000,  0.0000)
  19 Ni     2.489016    0.000000   14.064546    ( 0.0000,  0.0000,  0.0000)
  20 Ni     4.978032    0.000000   14.064546    ( 0.0000,  0.0000,  0.0000)
  21 Ni     1.244508    2.155551   14.064546    ( 0.0000,  0.0000,  0.0000)
  22 Ni     3.733524    2.155551   14.064546    ( 0.0000,  0.0000,  0.0000)
  23 Ni     6.222540    2.155551   14.064546    ( 0.0000,  0.0000,  0.0000)
  24 Ni     2.489016    4.311102   14.064546    ( 0.0000,  0.0000,  0.0000)
  25 Ni     4.978032    4.311102   14.064546    ( 0.0000,  0.0000,  0.0000)
  26 Ni     7.467048    4.311102   14.064546    ( 0.0000,  0.0000,  0.0000)

Unit cell:
           periodic     x           y           z      points  spacing
  1. axis:    yes    7.467048    0.000000    0.000000    35     0.1848
  2. axis:    yes    3.733524    6.466653    0.000000    35     0.1848
  3. axis:    no     0.000000    0.000000   24.064546   112     0.2149

  Lengths:   7.467048   7.467048  24.064546
  Angles:   90.000000  90.000000  60.000000

Effective grid spacing dv^(1/3) = 0.2038

     iter     time        total  log10-change:
                         energy   eigst   dens
iter:   1 16:43:38  -187.336773
iter:   2 16:44:00  -184.740146   -0.36  -1.56
iter:   3 16:44:27  -184.010952   -0.80  -1.65
iter:   4 16:44:49  -182.389662   -1.18  -1.81
iter:   5 16:45:10  -181.756616   -1.75  -1.90
iter:   6 16:45:32  -182.662242   -1.33  -1.97
iter:   7 16:45:53  -182.794232   -2.08  -2.08
iter:   8 16:46:12  -182.302093   -2.48  -2.24
iter:   9 16:46:34  -182.166901   -2.59  -2.23
iter:  10 16:46:55  -182.384338   -2.35  -2.48
iter:  11 16:47:14  -182.082872   -3.29  -2.46
iter:  12 16:47:35  -182.051196   -3.58  -2.62
iter:  13 16:47:55  -182.069842c  -3.66  -2.68
iter:  14 16:48:15  -182.013334c  -3.48  -2.71
iter:  15 16:48:36  -181.989311c  -4.34  -2.89
iter:  16 16:48:55  -181.989477c  -4.24  -2.96
iter:  17 16:49:15  -181.992151c  -4.53  -3.06
iter:  18 16:49:35  -181.999267c  -4.47  -3.07
iter:  19 16:49:56  -181.993614c  -4.38  -3.07
iter:  20 16:50:17  -182.009001c  -4.24  -3.23
iter:  21 16:50:36  -181.993094c  -4.71  -3.21
iter:  22 16:50:57  -181.990874c  -5.31  -3.26
iter:  23 16:51:17  -181.998135c  -4.78  -3.36
iter:  24 16:51:37  -181.999139c  -5.12  -3.31
iter:  25 16:51:58  -181.991680c  -5.43  -3.28
iter:  26 16:52:17  -181.991381c  -5.62  -3.52
iter:  27 16:52:38  -181.990784c  -5.63  -3.63
iter:  28 16:52:57  -181.989275c  -5.22  -3.65
iter:  29 16:53:17  -181.988185c  -5.92  -3.77
iter:  30 16:53:37  -181.988037c  -6.56  -4.02c
iter:  31 16:53:57  -181.988026c  -7.21  -4.11c
iter:  32 16:54:17  -181.987788c  -6.93  -4.15c
iter:  33 16:54:37  -181.987926c  -7.02  -4.24c
iter:  34 16:54:57  -181.987844c  -7.33  -4.28c
iter:  35 16:55:17  -181.988001c  -7.11  -4.31c
iter:  36 16:55:37  -181.988255c  -6.64  -4.36c
iter:  37 16:55:57  -181.988092c  -6.52  -4.10c
iter:  38 16:56:17  -181.988030c  -7.05  -4.23c
iter:  39 16:56:37  -181.988123c  -7.86c -4.50c

Converged after 39 iterations.

Dipole moment: (-0.237282, -0.136995, -0.000057) |e|*Ang

Energy contributions relative to reference atoms: (reference = -1116935.958077)

Kinetic:       +153.951366
Potential:     -110.728479
External:        +0.000000
XC:            -227.361070
Entropy (-ST):   -2.748382
Local:           +3.524252
SIC:             +0.000000
--------------------------
Free energy:   -183.362314
Extrapolated:  -181.988123

Showing only first 2 kpts
 Kpt  Band  Eigenvalues  Occupancy
  0   214     -1.89786    1.77847
  0   215     -1.82877    1.60186
  0   216     -1.82877    1.60186
  0   217     -1.73157    1.20699

  1   214     -1.79232    1.47289
  1   215     -1.79230    1.47279
  1   216     -1.65057    0.80744
  1   217     -1.65055    0.80734


Fermi level: -1.68956

No gap
No difference between direct/indirect transitions
Timing:                              incl.     excl.
-----------------------------------------------------------
Hamiltonian:                         1.366     0.002   0.0% |
 Atomic:                             0.617     0.002   0.0% |
  XC Correction:                     0.616     0.616   0.1% |
 Calculate atomic Hamiltonians:      0.383     0.383   0.0% |
 Communicate:                        0.000     0.000   0.0% |
 Initialize Hamiltonian:             0.000     0.000   0.0% |
 Poisson:                            0.004     0.004   0.0% |
 XC 3D grid:                         0.358     0.358   0.0% |
LCAO initialization:                58.889     0.026   0.0% |
 LCAO eigensolver:                   3.359     0.001   0.0% |
  Calculate projections:             0.013     0.013   0.0% |
  DenseAtomicCorrection:             0.166     0.166   0.0% |
  Distribute overlap matrix:         0.001     0.001   0.0% |
  Orbital Layouts:                   0.100     0.100   0.0% |
  Potential matrix:                  3.028     3.028   0.4% |
  Sum over cells:                    0.050     0.050   0.0% |
 LCAO to grid:                      54.355    54.355   6.3% |--|
 Set positions (LCAO WFS):           1.149     0.357   0.0% |
  Basic WFS set positions:           0.002     0.002   0.0% |
  Basis functions set positions:     0.000     0.000   0.0% |
  P tci:                             0.589     0.589   0.1% |
  ST tci:                            0.181     0.181   0.0% |
  mktci:                             0.020     0.020   0.0% |
PWDescriptor:                        0.159     0.159   0.0% |
SCF-cycle:                         798.434     0.084   0.0% |
 Davidson:                         687.588   124.274  14.4% |-----|
  Apply H:                          93.556    90.972  10.6% |---|
   HMM T:                            2.584     2.584   0.3% |
  Subspace diag:                   136.582     0.016   0.0% |
   calc_h_matrix:                  112.091    18.365   2.1% ||
    Apply H:                        93.727    91.147  10.6% |---|
     HMM T:                          2.579     2.579   0.3% |
   diagonalize:                      5.309     5.309   0.6% |
   rotate_psi:                      19.165    19.165   2.2% ||
  calc. matrices:                  268.618    81.095   9.4% |---|
   Apply H:                        187.523   182.377  21.2% |-------|
    HMM T:                           5.145     5.145   0.6% |
  diagonalize:                      28.870    28.870   3.4% ||
  rotate_psi:                       35.689    35.689   4.1% |-|
 Density:                           61.625     0.001   0.0% |
  Atomic density matrices:           0.249     0.249   0.0% |
  Mix:                              18.419    18.419   2.1% ||
  Multipole moments:                 0.015     0.015   0.0% |
  Pseudo density:                   42.941    42.241   4.9% |-|
   Symmetrize density:               0.700     0.700   0.1% |
 Hamiltonian:                       48.221     0.098   0.0% |
  Atomic:                           22.434     0.064   0.0% |
   XC Correction:                   22.370    22.370   2.6% ||
  Calculate atomic Hamiltonians:    14.075    14.075   1.6% ||
  Communicate:                       0.000     0.000   0.0% |
  Poisson:                           0.132     0.132   0.0% |
  XC 3D grid:                       11.481    11.481   1.3% ||
 Orthonormalize:                     0.916     0.001   0.0% |
  calc_s_matrix:                     0.103     0.103   0.0% |
  inverse-cholesky:                  0.019     0.019   0.0% |
  projections:                       0.482     0.482   0.1% |
  rotate_psi_s:                      0.310     0.310   0.0% |
Set symmetry:                        0.003     0.003   0.0% |
Other:                               2.427     2.427   0.3% |
-----------------------------------------------------------
Total:                                       861.277 100.0%

Memory usage: 1.08 GiB
Date: Sat Mar 29 16:56:37 2025
